                               Psi4 1.2.1 release

  ==> Input File <==

--------------------------------------------------------------------------
molecule{
0 1
    N           -0.973522792901     0.200462512179     0.584594887409
    N            1.415613427256    -0.122105903715     0.111311600751
    O            0.653098557007    -0.733101806966    -0.821195067487
    C           -0.849724477232    -0.610993997377    -0.413089844282
    O           -1.538067118707    -1.295608923986    -1.137114186781
    C            0.671671312169     2.080945712604    -0.701450981713
    C            1.924029064067    -1.028463608556     1.130755575096
    H            1.065841281248    -1.441001360253     1.669984534131
    H            2.474852995770    -1.823448563536     0.628690605011
    H            2.581853824029    -0.480896758523     1.806716635894
    C           -2.341013104663     0.496050956150     0.967466981268
    H           -2.959908218256    -0.411174081330     0.974214995267
    H           -2.351858871230     0.937907602591     1.967546805544
    H           -2.809577714244     1.207272035813     0.271750661585
    C            1.153686384299     1.128656626822     0.332622026097
    H            0.268005702844     1.558622822448    -1.567418310453
    H           -0.096755441838     2.723748691745    -0.267773158209
    H            1.516956098531     2.711639810947    -1.006965033045
    H            1.561381434758     1.523889032007     1.260869415077

}

set{
   basis 6-31+G(d)
   freeze_core True
   full_hess_every 0
   normal_modes_write True
}

set_num_threads(24)
frequencies('m06-2x')
--------------------------------------------------------------------------

    Molecular point group: c1
  Charge       = 0
  Multiplicity = 1
  Basis Set: 6-31+G(D)
    Blend: 6-31+G(D)
  Basis Set: (6-31+G(D) AUX)
    Blend: HEAVY-AUG-CC-PVDZ-JKFIT
  @DF-RKS Final Energy:  -456.20876141231406
    Total Energy =                       -456.2087614123140611
    Molecular point group: c1
  Basis Set: 6-31+G(D)
    Blend: 6-31+G(D)
  Basis Set: (6-31+G(D) AUX)
    Blend: HEAVY-AUG-CC-PVDZ-JKFIT
  Basis Set: 6-31+G(D)
    Blend: 6-31+G(D)
  Basis Set: (6-31+G(D) AUX)
    Blend: HEAVY-AUG-CC-PVDZ-JKFIT
  @DF-RKS Final Energy:  -456.20876099832537
    Total Energy =                       -456.2087609983253742
  Basis Set: 6-31+G(D)
    Blend: 6-31+G(D)
  Basis Set: (6-31+G(D) AUX)
    Blend: HEAVY-AUG-CC-PVDZ-JKFIT
  Basis Set: 6-31+G(D)
    Blend: 6-31+G(D)
  @DF-RKS Final Energy:  -456.20876089012518
    Total Energy =                       -456.2087608901251770
  @DF-RKS Final Energy:  -456.20876089399485
    Total Energy =                       -456.2087608939948495
  @DF-RKS Final Energy:  -456.20876121724757
    Total Energy =                       -456.2087612172475701
  @DF-RKS Final Energy:  -456.20876083111784
    Total Energy =                       -456.2087608311177860
  @DF-RKS Final Energy:  -456.20876112795895
    Total Energy =                       -456.2087611279590078
  @DF-RKS Final Energy:  -456.20876089709225
    Total Energy =                       -456.2087608970922474
  @DF-RKS Final Energy:  -456.20876124242551
    Total Energy =                       -456.2087612424255667
  @DF-RKS Final Energy:  -456.20876020398549
    Total Energy =                       -456.2087602039854346
  @DF-RKS Final Energy:  -456.20876068734134
    Total Energy =                       -456.2087606873413392
  @DF-RKS Final Energy:  -456.20876069366949
    Total Energy =                       -456.2087606936695465
  @DF-RKS Final Energy:  -456.20876108325979
    Total Energy =                       -456.2087610832598443
  @DF-RKS Final Energy:  -456.20876155465908
    Total Energy =                       -456.2087615546590769
  @DF-RKS Final Energy:  -456.20876092941035
    Total Energy =                       -456.2087609294103459
  @DF-RKS Final Energy:  -456.20876135896685
    Total Energy =                       -456.2087613589669104
  @DF-RKS Final Energy:  -456.20876106766462
    Total Energy =                       -456.2087610676646250
  @DF-RKS Final Energy:  -456.20876115364291
    Total Energy =                       -456.2087611536430245
  @DF-RKS Final Energy:  -456.20876116888547
    Total Energy =                       -456.2087611688855304
  @DF-RKS Final Energy:  -456.20876030946914
    Total Energy =                       -456.2087603094691985
  @DF-RKS Final Energy:  -456.20876099978000
    Total Energy =                       -456.2087609997799973
  @DF-RKS Final Energy:  -456.20875989876060
    Total Energy =                       -456.2087598987606043
  @DF-RKS Final Energy:  -456.20876033937549
    Total Energy =                       -456.2087603393754307
  @DF-RKS Final Energy:  -456.20875968444034
    Total Energy =                       -456.2087596844403379
  @DF-RKS Final Energy:  -456.20876006004210
    Total Energy =                       -456.2087600600420387
  @DF-RKS Final Energy:  -456.20875883391722
    Total Energy =                       -456.2087588339172726
  @DF-RKS Final Energy:  -456.20875879327792
    Total Energy =                       -456.2087587932778661
  @DF-RKS Final Energy:  -456.20875849024316
    Total Energy =                       -456.2087584902432127
  @DF-RKS Final Energy:  -456.20875839845399
    Total Energy =                       -456.2087583984540515
  @DF-RKS Final Energy:  -456.20875906305753
    Total Energy =                       -456.2087590630575278
  @DF-RKS Final Energy:  -456.20875899420923
    Total Energy =                       -456.2087589942092336
  @DF-RKS Final Energy:  -456.20875808052608
    Total Energy =                       -456.2087580805260814
  @DF-RKS Final Energy:  -456.20875833966613
    Total Energy =                       -456.2087583396661330
  @DF-RKS Final Energy:  -456.20875857817333
    Total Energy =                       -456.2087585781732741
  @DF-RKS Final Energy:  -456.20875861629412
    Total Energy =                       -456.2087586162942330
  @DF-RKS Final Energy:  -456.20875965788429
    Total Energy =                       -456.2087596578842863
  @DF-RKS Final Energy:  -456.20875961309991
    Total Energy =                       -456.2087596130999145
  @DF-RKS Final Energy:  -456.20875951805601
    Total Energy =                       -456.2087595180560129
  Basis Set: (6-31+G(D) AUX)
    Blend: HEAVY-AUG-CC-PVDZ-JKFIT
  Basis Set: 6-31+G(D)
    Blend: 6-31+G(D)
  Basis Set: (6-31+G(D) AUX)
    Blend: HEAVY-AUG-CC-PVDZ-JKFIT
  @DF-RKS Final Energy:  -456.20875977496951
    Total Energy =                       -456.2087597749695078
  Basis Set: 6-31+G(D)
    Blend: 6-31+G(D)
  Basis Set: (6-31+G(D) AUX)
    Blend: HEAVY-AUG-CC-PVDZ-JKFIT
    Molecular point group: c1
  Charge       = 0
  Multiplicity = 1
  Basis Set: 6-31+G(D)
    Blend: 6-31+G(D)
  Basis Set: (6-31+G(D) AUX)
    Blend: HEAVY-AUG-CC-PVDZ-JKFIT

    Orbital Energies [Eh]
    ---------------------

    Doubly Occupied:

       1A    -19.698151     2A    -19.594097     3A    -14.904990
       4A    -14.723252     5A    -10.675960     6A    -10.657231
       7A    -10.615241     8A    -10.580850     9A    -10.552534
      10A     -1.267777    11A     -1.138987    12A     -1.027889
      13A     -0.984718    14A     -0.909723    15A     -0.824581
      16A     -0.776167    17A     -0.717336    18A     -0.641350
      19A     -0.626673    20A     -0.599560    21A     -0.557618
      22A     -0.533503    23A     -0.527050    24A     -0.505906
      25A     -0.498710    26A     -0.496315    27A     -0.491257
      28A     -0.477076    29A     -0.451820    30A     -0.444158
      31A     -0.403687    32A     -0.375494    33A     -0.359303
      34A     -0.294306    35A     -0.273067

  @DF-RKS Final Energy:  -456.20876141029373

   => Energetics <=

    Nuclear Repulsion Energy =            488.3765037688961570
    One-Electron Energy =               -1588.2176269515969125
    Two-Electron Energy =                 673.3368926290289664
    DFT Exchange-Correlation Energy =     -29.7045308566219219
    Empirical Dispersion Energy =           0.0000000000000000
    VV10 Nonlocal Energy =                  0.0000000000000000
    Total Energy =                       -456.2087614102937891

  Dipole Moment: [D]
     X:     5.2543      Y:     4.0797      Z:     3.6741     Total:     7.5994

    Molecular point group: c1

    Geometry (in Angstrom), charge = 0, multiplicity = 1:

       Center              X                  Y                   Z               Mass
    ------------   -----------------  -----------------  -----------------  -----------------
         N           -0.973522792901     0.200462512179     0.584594887409    14.003074004780
         N            1.415613427256    -0.122105903715     0.111311600751    14.003074004780
         O            0.653098557007    -0.733101806966    -0.821195067487    15.994914619560
         C           -0.849724477232    -0.610993997377    -0.413089844282    12.000000000000
         O           -1.538067118707    -1.295608923986    -1.137114186781    15.994914619560
         C            0.671671312169     2.080945712604    -0.701450981713    12.000000000000
         C            1.924029064067    -1.028463608556     1.130755575096    12.000000000000
         H            1.065841281248    -1.441001360253     1.669984534131     1.007825032070
         H            2.474852995770    -1.823448563536     0.628690605011     1.007825032070
         H            2.581853824029    -0.480896758523     1.806716635894     1.007825032070
         C           -2.341013104663     0.496050956150     0.967466981268    12.000000000000
         H           -2.959908218256    -0.411174081330     0.974214995267     1.007825032070
         H           -2.351858871230     0.937907602591     1.967546805544     1.007825032070
         H           -2.809577714244     1.207272035813     0.271750661585     1.007825032070
         C            1.153686384299     1.128656626822     0.332622026097    12.000000000000
         H            0.268005702844     1.558622822448    -1.567418310453     1.007825032070
         H           -0.096755441838     2.723748691745    -0.267773158209     1.007825032070
         H            1.516956098531     2.711639810947    -1.006965033045     1.007825032070
         H            1.561381434758     1.523889032007     1.260869415077     1.007825032070

  Basis Set: 6-31+G(D)
    Blend: 6-31+G(D)
  Basis Set: (6-31+G(D) AUX)
    Blend: HEAVY-AUG-CC-PVDZ-JKFIT

  -Total Gradient:
     Atom            X                  Y                   Z
    ------   -----------------  -----------------  -----------------
       1        0.000039969809    -0.000015324929    -0.000031788512
       2       -0.000085755727    -0.000035013727    -0.000065410211
       3        0.000273938686     0.000045413064    -0.000041089958
       4       -0.000426965017    -0.000008184326     0.000090266401
       5        0.000086576205     0.000053734508     0.000036695408
       6        0.000001006613     0.000001037205     0.000022241530
       7        0.000002424230    -0.000013675239     0.000003614220
       8       -0.000019282911    -0.000011399237    -0.000005357983
       9       -0.000018209497    -0.000019680512    -0.000016927748
      10        0.000001431560    -0.000019172949    -0.000005653488
      11        0.000195126324    -0.000026104353    -0.000024653224
      12       -0.000128519472    -0.000195012634     0.000002684550
      13        0.000043479302     0.000137596276     0.000204405407
      14       -0.000106306494     0.000185957553    -0.000187283716
      15        0.000002334444    -0.000030192885    -0.000007467391
      16       -0.000006833925     0.000006382101    -0.000004366641
      17        0.000005202934     0.000018794151     0.000013568376
      18        0.000014632416     0.000006734959    -0.000010752627
      19        0.000013181043    -0.000004953977    -0.000000785225

  Vibration                       1                   8                   9
  Freq [cm^-1]                341.5544i            96.4031             106.3067
  Irrep                           A                   A                   A
  Reduced mass [u]              4.7499              3.9701              1.9344
  Force const [mDyne/A]        -0.3265              0.0217              0.0129

  Vibration                       10                  11                  12
  Freq [cm^-1]                 130.1749            181.6546            197.9096
  Irrep                           A                   A                   A
  Reduced mass [u]              1.4602              1.2141              2.1218
  Force const [mDyne/A]         0.0146              0.0236              0.0490

  Vibration                       13                  14                  15
  Freq [cm^-1]                 221.9651            241.6719            278.4611
  Irrep                           A                   A                   A
  Reduced mass [u]              2.4780              1.1361              3.1702
  Force const [mDyne/A]         0.0719              0.0391              0.1448

  Vibration                       16                  17                  18
  Freq [cm^-1]                 292.2738            409.3195            469.2109
  Irrep                           A                   A                   A
  Reduced mass [u]              3.1284              6.1591              5.0941
  Force const [mDyne/A]         0.1575              0.6080              0.6608

  Vibration                       19                  20                  21
  Freq [cm^-1]                 497.7189            578.7784            660.9808
  Irrep                           A                   A                   A
  Reduced mass [u]              4.9933              3.8274              6.6010
  Force const [mDyne/A]         0.7288              0.7554              1.6992

  Vibration                       22                  23                  24
  Freq [cm^-1]                 743.9147            776.9490            875.3373
  Irrep                           A                   A                   A
  Reduced mass [u]             11.3639              5.5120              2.0445
  Force const [mDyne/A]         3.7053              1.9604              0.9230

  Vibration                       25                  26                  27
  Freq [cm^-1]                 902.6966           1005.1460           1031.8408
  Irrep                           A                   A                   A
  Reduced mass [u]              1.1511              3.1212              2.3704
  Force const [mDyne/A]         0.5527              1.8579              1.4870

  Vibration                       28                  29                  30
  Freq [cm^-1]                1088.0821           1139.4962           1141.9990
  Irrep                           A                   A                   A
  Reduced mass [u]              1.8722              1.5505              1.3594
  Force const [mDyne/A]         1.3060              1.1862              1.0445

  Vibration                       31                  32                  33
  Freq [cm^-1]                1155.4282           1173.5304           1175.6361
  Irrep                           A                   A                   A
  Reduced mass [u]              1.4301              1.6037              2.3331
  Force const [mDyne/A]         1.1249              1.3012              1.8999

  Vibration                       34                  35                  36
  Freq [cm^-1]                1250.2339           1363.2363           1410.9689
  Irrep                           A                   A                   A
  Reduced mass [u]              2.5700              3.6096              1.5549
  Force const [mDyne/A]         2.3668              3.9523              1.8238

  Vibration                       37                  38                  39
  Freq [cm^-1]                1449.1535           1452.4371           1465.9971
  Irrep                           A                   A                   A
  Reduced mass [u]              1.5964              1.2115              1.1741
  Force const [mDyne/A]         1.9752              1.5059              1.4867

  Vibration                       40                  41                  42
  Freq [cm^-1]                1489.1572           1497.8259           1500.1280
  Irrep                           A                   A                   A
  Reduced mass [u]              1.0786              1.0455              1.0434
  Force const [mDyne/A]         1.4092              1.3820              1.3834

  Vibration                       43                  44                  45
  Freq [cm^-1]                1517.6121           1521.3037           1526.2106
  Irrep                           A                   A                   A
  Reduced mass [u]              1.0439              1.0766              1.0545
  Force const [mDyne/A]         1.4166              1.4680              1.4472

  Vibration                       46                  47                  48
  Freq [cm^-1]                1739.7632           1915.0168           3036.6298
  Irrep                           A                   A                   A
  Reduced mass [u]              6.1528             11.5768              1.0390
  Force const [mDyne/A]        10.9725             25.0139              5.6451

  Vibration                       49                  50                  51
  Freq [cm^-1]                3078.9965           3091.2927           3103.2426
  Irrep                           A                   A                   A
  Reduced mass [u]              1.0481              1.0987              1.0339
  Force const [mDyne/A]         5.8540              6.1862              5.8661

  Vibration                       52                  53                  54
  Freq [cm^-1]                3144.3144           3169.6222           3194.1860
  Irrep                           A                   A                   A
  Reduced mass [u]              1.0996              1.0876              1.1029
  Force const [mDyne/A]         6.4052              6.4380              6.6299

  Vibration                       55                  56                  57
  Freq [cm^-1]                3219.0009           3222.5255           3235.9671
  Irrep                           A                   A                   A
  Reduced mass [u]              1.1038              1.1018              1.0966
  Force const [mDyne/A]         6.7385              6.7412              6.7654

  ==> Thermochemistry Components <==

  Entropy, S
    Electronic S            0.000 [cal/(mol K)]        0.000 [J/(mol K)]       0.00000000 [mEh/K] (multiplicity = 1)
    Translational S        40.502 [cal/(mol K)]      169.460 [J/(mol K)]       0.06454374 [mEh/K] (mol. weight = 130.0742 [u], P = 101325.00 [Pa])
    Rotational S           28.876 [cal/(mol K)]      120.817 [J/(mol K)]       0.04601670 [mEh/K] (symmetry no. = 1)
    Vibrational S          25.634 [cal/(mol K)]      107.253 [J/(mol K)]       0.04085055 [mEh/K]
  Total S                  95.012 [cal/(mol K)]      397.530 [J/(mol K)]       0.15141099 [mEh/K]
  Correction S              0.000 [cal/(mol K)]        0.000 [J/(mol K)]       0.00000000 [mEh/K]

  Constant volume heat capacity, Cv
    Electronic Cv           0.000 [cal/(mol K)]        0.000 [J/(mol K)]       0.00000000 [mEh/K]
    Translational Cv        2.981 [cal/(mol K)]       12.472 [J/(mol K)]       0.00475022 [mEh/K]
    Rotational Cv           2.981 [cal/(mol K)]       12.472 [J/(mol K)]       0.00475022 [mEh/K]
    Vibrational Cv         28.310 [cal/(mol K)]      118.448 [J/(mol K)]       0.04511459 [mEh/K]
  Total Cv                 34.271 [cal/(mol K)]      143.392 [J/(mol K)]       0.05461504 [mEh/K]
  Correction Cv             0.000 [cal/(mol K)]        0.000 [J/(mol K)]       0.00000000 [mEh/K]

  Constant pressure heat capacity, Cp
    Electronic Cp           0.000 [cal/(mol K)]        0.000 [J/(mol K)]       0.00000000 [mEh/K]
    Translational Cp        4.968 [cal/(mol K)]       20.786 [J/(mol K)]       0.00791704 [mEh/K]
    Rotational Cp           2.981 [cal/(mol K)]       12.472 [J/(mol K)]       0.00475022 [mEh/K]
    Vibrational Cp         28.310 [cal/(mol K)]      118.448 [J/(mol K)]       0.04511459 [mEh/K]
  Total Cp                 36.259 [cal/(mol K)]      151.706 [J/(mol K)]       0.05778185 [mEh/K]
  Correction Cp             0.000 [cal/(mol K)]        0.000 [J/(mol K)]       0.00000000 [mEh/K]

  ==> Thermochemistry Energy Analysis <==

  Raw electronic energy, E0
  Total E0, Electronic energy at well bottom at 0 [K]                 -456.20876141 [Eh]

  Zero-point energy, ZPE_vib = Sum_i nu_i / 2
    Electronic ZPE          0.000 [kcal/mol]        0.000 [kJ/mol]       0.00000000 [Eh]
    Translational ZPE       0.000 [kcal/mol]        0.000 [kJ/mol]       0.00000000 [Eh]
    Rotational ZPE          0.000 [kcal/mol]        0.000 [kJ/mol]       0.00000000 [Eh]
    Vibrational ZPE        98.880 [kcal/mol]      413.715 [kJ/mol]       0.15757560 [Eh]       34583.842 [cm^-1]
  Correction ZPE           98.880 [kcal/mol]      413.715 [kJ/mol]       0.15757560 [Eh]       34583.842 [cm^-1]
  Total ZPE, Electronic energy at 0 [K]                               -456.05118581 [Eh]

  Thermal Energy, E (includes ZPE)
    Electronic E            0.000 [kcal/mol]        0.000 [kJ/mol]       0.00000000 [Eh]
    Translational E         0.889 [kcal/mol]        3.718 [kJ/mol]       0.00141628 [Eh]
    Rotational E            0.889 [kcal/mol]        3.718 [kJ/mol]       0.00141628 [Eh]
    Vibrational E         103.174 [kcal/mol]      431.679 [kJ/mol]       0.16441776 [Eh]
  Correction E            104.951 [kcal/mol]      439.116 [kJ/mol]       0.16725032 [Eh]
  Total E, Electronic energy at  298.15 [K]                           -456.04151109 [Eh]

  Enthalpy, H_trans = E_trans + k_B * T
    Electronic H            0.000 [kcal/mol]        0.000 [kJ/mol]       0.00000000 [Eh]
    Translational H         1.481 [kcal/mol]        6.197 [kJ/mol]       0.00236046 [Eh]
    Rotational H            0.889 [kcal/mol]        3.718 [kJ/mol]       0.00141628 [Eh]
    Vibrational H         103.174 [kcal/mol]      431.679 [kJ/mol]       0.16441776 [Eh]
  Correction H            105.544 [kcal/mol]      441.595 [kJ/mol]       0.16819450 [Eh]
  Total H, Enthalpy at  298.15 [K]                                    -456.04056691 [Eh]

  Gibbs free energy, G = H - T * S
    Electronic G            0.000 [kcal/mol]        0.000 [kJ/mol]       0.00000000 [Eh]
    Translational G       -10.594 [kcal/mol]      -44.327 [kJ/mol]      -0.01688325 [Eh]
    Rotational G           -7.721 [kcal/mol]      -32.303 [kJ/mol]      -0.01230360 [Eh]
    Vibrational G          95.531 [kcal/mol]      399.701 [kJ/mol]       0.15223817 [Eh]
  Correction G             77.216 [kcal/mol]      323.071 [kJ/mol]       0.12305131 [Eh]
  Total G, Free enthalpy at  298.15 [K]                               -456.08571010 [Eh]

*** Psi4 exiting successfully. Buy a developer a beer!
