                               Psi4 1.2.1 release

  ==> Input File <==

--------------------------------------------------------------------------
molecule{
0 1
    N           -0.890645920780     0.312549809507     0.643696794401
    N            1.422552498418    -0.232204527187    -0.000555956041
    O            0.563133779579    -0.848655057895    -0.856851204860
    C           -0.961439798960    -0.568522730575    -0.301554646328
    O           -1.750348575007    -1.260764861648    -0.925483229825
    C            0.747644955407     1.969269375561    -0.882365557536
    C            1.942725085620    -1.114610435911     1.039346944681
    H            1.098824089282    -1.448820926807     1.649992097832
    H            2.415153623976    -1.963402505049     0.545653410686
    H            2.672131469582    -0.569150222186     1.640411122607
    C           -2.172767089482     0.805375255022     1.140879300779
    H           -2.939824112904     0.022022073505     1.096107667602
    H           -2.051842421571     1.131841506946     2.176662602510
    H           -2.522583313952     1.659364495864     0.545909386265
    C            1.211545136145     1.043869476171     0.184394803385
    H            0.228534512952     1.434380239458    -1.676329288278
    H            0.085223315915     2.721512307926    -0.448488145827
    H            1.623535960547     2.485194284190    -1.299771982414
    H            1.701339847474     1.463123112451     1.062367247769

}

set{
   basis 6-31+G(d)
   freeze_core True
   normal_modes_write True
}

frequencies('mp2')
--------------------------------------------------------------------------

    Molecular point group: c1
  Charge       = 0
  Multiplicity = 1
  Basis Set: 6-31+G(D)
    Blend: 6-31+G(D)
  Basis Set: (6-31+G(D) AUX)
    Blend: HEAVY-AUG-CC-PVDZ-JKFIT
  @DF-RHF Final Energy:  -453.65831455903418
    Total Energy =                       -453.6583145590342383
  Basis Set: (6-31+G(D) AUX)
    Blend: HEAVY-AUG-CC-PVDZ-RI
    Molecular point group: c1
  Basis Set: 6-31+G(D)
    Blend: 6-31+G(D)
  Basis Set: (6-31+G(D) AUX)
    Blend: HEAVY-AUG-CC-PVDZ-JKFIT
  Basis Set: (6-31+G(D) AUX)
    Blend: HEAVY-AUG-CC-PVDZ-JKFIT
	 Reference Energy          =    -453.6583145590341815 [Eh]
	 Singles Energy            =      -0.0000000000000001 [Eh]
	 Same-Spin Energy          =      -0.3623056285986372 [Eh]
	 Opposite-Spin Energy      =      -1.0035607075489406 [Eh]
	 Correlation Energy        =      -1.3658663361475778 [Eh]
	 Total Energy              =    -455.0241808951817575 [Eh]
	 SCS Total Energy          =    -454.9833559509590941 [Eh]
  @DF-RHF Final Energy:  -453.65833011632014
    Total Energy =                       -453.6583301163201440
  @DF-RHF Final Energy:  -453.65829807857654
    Total Energy =                       -453.6582980785765358
  @DF-RHF Final Energy:  -453.65834023558239
    Total Energy =                       -453.6583402355823864
  @DF-RHF Final Energy:  -453.65828802737167
    Total Energy =                       -453.6582880273716682
  @DF-RHF Final Energy:  -453.65834657312752
    Total Energy =                       -453.6583465731274600
  @DF-RHF Final Energy:  -453.65828172520855
    Total Energy =                       -453.6582817252085533
  @DF-RHF Final Energy:  -453.65832747527958
    Total Energy =                       -453.6583274752796342
  @DF-RHF Final Energy:  -453.65830085687281
    Total Energy =                       -453.6583008568728701
  @DF-RHF Final Energy:  -453.65829149774106
    Total Energy =                       -453.6582914977410610
  @DF-RHF Final Energy:  -453.65833566523287
    Total Energy =                       -453.6583356652329257
  @DF-RHF Final Energy:  -453.65832343312388
    Total Energy =                       -453.6583234331238828
  @DF-RHF Final Energy:  -453.65830456434367
    Total Energy =                       -453.6583045643436662
  @DF-RHF Final Energy:  -453.65834338337913
    Total Energy =                       -453.6583433833791332
  @DF-RHF Final Energy:  -453.65828545814952
    Total Energy =                       -453.6582854581495212
  @DF-RHF Final Energy:  -453.65828881469542
    Total Energy =                       -453.6582888146954247
  @DF-RHF Final Energy:  -453.65833986845666
    Total Energy =                       -453.6583398684566646
  @DF-RHF Final Energy:  -453.65828451446936
    Total Energy =                       -453.6582845144694147
  @DF-RHF Final Energy:  -453.65834414053359
    Total Energy =                       -453.6583441405335861
  @DF-RHF Final Energy:  -453.65833400256651
    Total Energy =                       -453.6583340025664484
  @DF-RHF Final Energy:  -453.65833463061728
    Total Energy =                       -453.6583346306173326
  @DF-RHF Final Energy:  -453.65828497618338
    Total Energy =                       -453.6582849761833813
  @DF-RHF Final Energy:  -453.65834095542618
    Total Energy =                       -453.6583409554261834
  @DF-RHF Final Energy:  -453.65830732490940
    Total Energy =                       -453.6583073249094014
  @DF-RHF Final Energy:  -453.65831830992420
    Total Energy =                       -453.6583183099241978
  @DF-RHF Final Energy:  -453.65830472913814
    Total Energy =                       -453.6583047291380808
  @DF-RHF Final Energy:  -453.65831927884875
    Total Energy =                       -453.6583192788486940
  @DF-RHF Final Energy:  -453.65827355546378
    Total Energy =                       -453.6582735554637793
  @DF-RHF Final Energy:  -453.65834902041888
    Total Energy =                       -453.6583490204188820
  @DF-RHF Final Energy:  -453.65828404363225
    Total Energy =                       -453.6582840436321931
  @DF-RHF Final Energy:  -453.65834003780503
    Total Energy =                       -453.6583400378050328
  @DF-RHF Final Energy:  -453.65827477915894
    Total Energy =                       -453.6582747791590009
  @DF-RHF Final Energy:  -453.65834804636847
    Total Energy =                       -453.6583480463684737
  @DF-RHF Final Energy:  -453.65826912075062
    Total Energy =                       -453.6582691207506741
  @DF-RHF Final Energy:  -453.65835418713556
    Total Energy =                       -453.6583541871355010
  @DF-RHF Final Energy:  -453.65831162479253
    Total Energy =                       -453.6583116247925318
  @DF-RHF Final Energy:  -453.65831365646312
    Total Energy =                       -453.6583136564630649
  @DF-RHF Final Energy:  -453.65827414941884
    Total Energy =                       -453.6582741494188440
  @DF-RHF Final Energy:  -453.65835111308684
    Total Energy =                       -453.6583511130868374
    Molecular point group: c1
  Charge       = 0
  Multiplicity = 1
  Basis Set: 6-31+G(D)
    Blend: 6-31+G(D)
  Basis Set: (6-31+G(D) AUX)
    Blend: HEAVY-AUG-CC-PVDZ-JKFIT

    Orbital Energies [Eh]
    ---------------------

    Doubly Occupied:

       1A    -20.612253     2A    -20.522966     3A    -15.698884
       4A    -15.532956     5A    -11.382138     6A    -11.377359
       7A    -11.293843     8A    -11.267912     9A    -11.242603
      10A     -1.468325    11A     -1.357775    12A     -1.207758
      13A     -1.190519    14A     -1.074836    15A     -0.975229
      16A     -0.929251    17A     -0.835587    18A     -0.749842
      19A     -0.722921    20A     -0.695172    21A     -0.671866
      22A     -0.627952    23A     -0.621090    24A     -0.610236
      25A     -0.593305    26A     -0.587431    27A     -0.584960
      28A     -0.569660    29A     -0.541715    30A     -0.534157
      31A     -0.491047    32A     -0.463586    33A     -0.442674
      34A     -0.372869    35A     -0.346826

  @DF-RHF Final Energy:  -453.65831456316812

   => Energetics <=

    Nuclear Repulsion Energy =            485.3745531415378878
    One-Electron Energy =               -1581.6707294275227014
    Two-Electron Energy =                 642.6378617228166377
    Total Energy =                       -453.6583145631681191

  Dipole Moment: [D]
     X:     5.5895      Y:     4.6963      Z:     3.3893     Total:     8.0489

  Basis Set: (6-31+G(D) AUX)
    Blend: HEAVY-AUG-CC-PVDZ-RI
    Molecular point group: c1

    Geometry (in Angstrom), charge = 0, multiplicity = 1:

       Center              X                  Y                   Z               Mass
    ------------   -----------------  -----------------  -----------------  -----------------
         N           -0.890645920780     0.312549809507     0.643696794401    14.003074004780
         N            1.422552498418    -0.232204527187    -0.000555956041    14.003074004780
         O            0.563133779579    -0.848655057895    -0.856851204860    15.994914619560
         C           -0.961439798960    -0.568522730575    -0.301554646328    12.000000000000
         O           -1.750348575007    -1.260764861648    -0.925483229825    15.994914619560
         C            0.747644955407     1.969269375561    -0.882365557536    12.000000000000
         C            1.942725085620    -1.114610435911     1.039346944681    12.000000000000
         H            1.098824089282    -1.448820926807     1.649992097832     1.007825032070
         H            2.415153623976    -1.963402505049     0.545653410686     1.007825032070
         H            2.672131469582    -0.569150222186     1.640411122607     1.007825032070
         C           -2.172767089482     0.805375255022     1.140879300779    12.000000000000
         H           -2.939824112904     0.022022073505     1.096107667602     1.007825032070
         H           -2.051842421571     1.131841506946     2.176662602510     1.007825032070
         H           -2.522583313952     1.659364495864     0.545909386265     1.007825032070
         C            1.211545136145     1.043869476171     0.184394803385    12.000000000000
         H            0.228534512952     1.434380239458    -1.676329288278     1.007825032070
         H            0.085223315915     2.721512307926    -0.448488145827     1.007825032070
         H            1.623535960547     2.485194284190    -1.299771982414     1.007825032070
         H            1.701339847474     1.463123112451     1.062367247769     1.007825032070

  Basis Set: 6-31+G(D)
    Blend: 6-31+G(D)
  Basis Set: (6-31+G(D) AUX)
    Blend: HEAVY-AUG-CC-PVDZ-JKFIT
  Basis Set: (6-31+G(D) AUX)
    Blend: HEAVY-AUG-CC-PVDZ-JKFIT
	 Reference Energy          =    -453.6583145631681191 [Eh]
	 Singles Energy            =      -0.0000000000000000 [Eh]
	 Same-Spin Energy          =      -0.3623056286307999 [Eh]
	 Opposite-Spin Energy      =      -1.0035607076068940 [Eh]
	 Correlation Energy        =      -1.3658663362376939 [Eh]
	 Total Energy              =    -455.0241808994057919 [Eh]

	 ================> DF-SCS-MP2 Energies <==================
	-----------------------------------------------------------
	 SCS Same-Spin Scale       =       0.3333333333333333 [-]
	 SCS Opposite-Spin Scale   =       1.2000000000000000 [-]
	 SCS Same-Spin Energy      =      -0.1207685428769333 [Eh]
	 SCS Opposite-Spin Energy  =      -1.2042728491282728 [Eh]
	 SCS Correlation Energy    =      -1.3250413920052062 [Eh]
	 SCS Total Energy          =    -454.9833559551733515 [Eh]
	-----------------------------------------------------------

  -Total Gradient:
     Atom            X                  Y                   Z
    ------   -----------------  -----------------  -----------------
       1        0.000032595832     0.000045897442     0.000017920796
       2        0.000043717798     0.000074880055     0.000111263888
       3       -0.000289304213    -0.000003470368    -0.000050696710
       4        0.000265697666    -0.000067426728    -0.000020417590
       5       -0.000093820532    -0.000035757290    -0.000048005701
       6        0.000045535849    -0.000006958153    -0.000007439326
       7        0.000033751697    -0.000018727196     0.000008967023
       8        0.000001996076     0.000002232485    -0.000012125286
       9        0.000007734311     0.000003412159     0.000000305469
      10       -0.000001087521    -0.000001058840     0.000005470355
      11       -0.000099521476     0.000019741785     0.000009438529
      12        0.000034747393     0.000001416852    -0.000014456317
      13        0.000021592536    -0.000020625560    -0.000019266637
      14        0.000008298301    -0.000013586713     0.000008050029
      15       -0.000010762981     0.000042517867     0.000013473206
      16       -0.000020566357    -0.000006742637    -0.000002216556
      17        0.000016181135    -0.000004183668     0.000009503996
      18        0.000003496973    -0.000016734517    -0.000009183784
      19       -0.000000282484     0.000005173031    -0.000000585383

  Vibration                       1                   8                   9
  Freq [cm^-1]                372.1137i            62.5923             92.9098
  Irrep                           A                   A                   A
  Reduced mass [u]              5.6444              1.1905              3.4209
  Force const [mDyne/A]        -0.4605              0.0027              0.0174

  Vibration                       10                  11                  12
  Freq [cm^-1]                 107.3459            173.6402            185.9130
  Irrep                           A                   A                   A
  Reduced mass [u]              2.8454              3.0188              1.5305
  Force const [mDyne/A]         0.0193              0.0536              0.0312

  Vibration                       13                  14                  15
  Freq [cm^-1]                 212.0153            223.3652            271.9379
  Irrep                           A                   A                   A
  Reduced mass [u]              1.2862              1.3470              2.9501
  Force const [mDyne/A]         0.0341              0.0396              0.1285

  Vibration                       16                  17                  18
  Freq [cm^-1]                 285.7329            344.8255            453.3610
  Irrep                           A                   A                   A
  Reduced mass [u]              3.1161              7.4234              5.6016
  Force const [mDyne/A]         0.1499              0.5201              0.6783

  Vibration                       19                  20                  21
  Freq [cm^-1]                 460.1906            567.8794            625.9812
  Irrep                           A                   A                   A
  Reduced mass [u]              3.9295              4.0688              5.6420
  Force const [mDyne/A]         0.4903              0.7731              1.3026

  Vibration                       22                  23                  24
  Freq [cm^-1]                 689.7547            749.8920            871.7379
  Irrep                           A                   A                   A
  Reduced mass [u]             11.6516              5.9522              2.4541
  Force const [mDyne/A]         3.2661              1.9721              1.0988

  Vibration                       25                  26                  27
  Freq [cm^-1]                 913.3827            980.2149           1020.6868
  Irrep                           A                   A                   A
  Reduced mass [u]              1.1334              3.6777              2.5576
  Force const [mDyne/A]         0.5571              2.0819              1.5699

  Vibration                       28                  29                  30
  Freq [cm^-1]                1093.9026           1142.9488           1154.3031
  Irrep                           A                   A                   A
  Reduced mass [u]              1.5748              1.7619              1.2950
  Force const [mDyne/A]         1.1103              1.3561              1.0167

  Vibration                       31                  32                  33
  Freq [cm^-1]                1168.6381           1175.1137           1178.6508
  Irrep                           A                   A                   A
  Reduced mass [u]              1.4787              1.9827              1.7269
  Force const [mDyne/A]         1.1899              1.6131              1.4135

  Vibration                       34                  35                  36
  Freq [cm^-1]                1241.2867           1332.3836           1418.1499
  Irrep                           A                   A                   A
  Reduced mass [u]              2.3968              5.3150              1.4352
  Force const [mDyne/A]         2.1758              5.5592              1.7006

  Vibration                       37                  38                  39
  Freq [cm^-1]                1463.0623           1472.1859           1482.6316
  Irrep                           A                   A                   A
  Reduced mass [u]              1.3963              1.1975              1.1578
  Force const [mDyne/A]         1.7610              1.5291              1.4995

  Vibration                       40                  41                  42
  Freq [cm^-1]                1514.3107           1518.3895           1519.7027
  Irrep                           A                   A                   A
  Reduced mass [u]              1.0644              1.0481              1.0471
  Force const [mDyne/A]         1.4381              1.4236              1.4249

  Vibration                       43                  44                  45
  Freq [cm^-1]                1537.0516           1539.8459           1546.2795
  Irrep                           A                   A                   A
  Reduced mass [u]              1.0498              1.0597              1.0505
  Force const [mDyne/A]         1.4613              1.4804              1.4798

  Vibration                       46                  47                  48
  Freq [cm^-1]                1724.2319           1923.9574           3062.0625
  Irrep                           A                   A                   A
  Reduced mass [u]              5.7578             11.5986              1.0337
  Force const [mDyne/A]        10.0856             25.2956              5.7108

  Vibration                       49                  50                  51
  Freq [cm^-1]                3085.3110           3113.7734           3135.8333
  Irrep                           A                   A                   A
  Reduced mass [u]              1.0464              1.0319              1.1037
  Force const [mDyne/A]         5.8689              5.8946              6.3944

  Vibration                       52                  53                  54
  Freq [cm^-1]                3180.6120           3183.0133           3216.9461
  Irrep                           A                   A                   A
  Reduced mass [u]              1.1022              1.0893              1.1037
  Force const [mDyne/A]         6.5698              6.5025              6.7297

  Vibration                       55                  56                  57
  Freq [cm^-1]                3224.5558           3244.1153           3246.4927
  Irrep                           A                   A                   A
  Reduced mass [u]              1.0947              1.1060              1.1024
  Force const [mDyne/A]         6.7065              6.8581              6.8457

  ==> Thermochemistry Components <==

  Entropy, S
    Electronic S            0.000 [cal/(mol K)]        0.000 [J/(mol K)]       0.00000000 [mEh/K] (multiplicity = 1)
    Translational S        40.502 [cal/(mol K)]      169.460 [J/(mol K)]       0.06454374 [mEh/K] (mol. weight = 130.0742 [u], P = 101325.00 [Pa])
    Rotational S           28.906 [cal/(mol K)]      120.944 [J/(mol K)]       0.04606523 [mEh/K] (symmetry no. = 1)
    Vibrational S          28.184 [cal/(mol K)]      117.921 [J/(mol K)]       0.04491378 [mEh/K]
  Total S                  97.592 [cal/(mol K)]      408.325 [J/(mol K)]       0.15552276 [mEh/K]
  Correction S              0.000 [cal/(mol K)]        0.000 [J/(mol K)]       0.00000000 [mEh/K]

  Constant volume heat capacity, Cv
    Electronic Cv           0.000 [cal/(mol K)]        0.000 [J/(mol K)]       0.00000000 [mEh/K]
    Translational Cv        2.981 [cal/(mol K)]       12.472 [J/(mol K)]       0.00475022 [mEh/K]
    Rotational Cv           2.981 [cal/(mol K)]       12.472 [J/(mol K)]       0.00475022 [mEh/K]
    Vibrational Cv         28.925 [cal/(mol K)]      121.020 [J/(mol K)]       0.04609423 [mEh/K]
  Total Cv                 34.886 [cal/(mol K)]      145.964 [J/(mol K)]       0.05559467 [mEh/K]
  Correction Cv             0.000 [cal/(mol K)]        0.000 [J/(mol K)]       0.00000000 [mEh/K]

  Constant pressure heat capacity, Cp
    Electronic Cp           0.000 [cal/(mol K)]        0.000 [J/(mol K)]       0.00000000 [mEh/K]
    Translational Cp        4.968 [cal/(mol K)]       20.786 [J/(mol K)]       0.00791704 [mEh/K]
    Rotational Cp           2.981 [cal/(mol K)]       12.472 [J/(mol K)]       0.00475022 [mEh/K]
    Vibrational Cp         28.925 [cal/(mol K)]      121.020 [J/(mol K)]       0.04609423 [mEh/K]
  Total Cp                 36.873 [cal/(mol K)]      154.278 [J/(mol K)]       0.05876149 [mEh/K]
  Correction Cp             0.000 [cal/(mol K)]        0.000 [J/(mol K)]       0.00000000 [mEh/K]

  ==> Thermochemistry Energy Analysis <==

  Raw electronic energy, E0
  Total E0, Electronic energy at well bottom at 0 [K]                 -455.02418090 [Eh]

  Zero-point energy, ZPE_vib = Sum_i nu_i / 2
    Electronic ZPE          0.000 [kcal/mol]        0.000 [kJ/mol]       0.00000000 [Eh]
    Translational ZPE       0.000 [kcal/mol]        0.000 [kJ/mol]       0.00000000 [Eh]
    Rotational ZPE          0.000 [kcal/mol]        0.000 [kJ/mol]       0.00000000 [Eh]
    Vibrational ZPE        98.831 [kcal/mol]      413.508 [kJ/mol]       0.15749676 [Eh]       34566.539 [cm^-1]
  Correction ZPE           98.831 [kcal/mol]      413.508 [kJ/mol]       0.15749676 [Eh]       34566.539 [cm^-1]
  Total ZPE, Electronic energy at 0 [K]                               -454.86668414 [Eh]

  Thermal Energy, E (includes ZPE)
    Electronic E            0.000 [kcal/mol]        0.000 [kJ/mol]       0.00000000 [Eh]
    Translational E         0.889 [kcal/mol]        3.718 [kJ/mol]       0.00141628 [Eh]
    Rotational E            0.889 [kcal/mol]        3.718 [kJ/mol]       0.00141628 [Eh]
    Vibrational E         103.367 [kcal/mol]      432.487 [kJ/mol]       0.16472563 [Eh]
  Correction E            105.144 [kcal/mol]      439.924 [kJ/mol]       0.16755819 [Eh]
  Total E, Electronic energy at  298.15 [K]                           -454.85662271 [Eh]

  Enthalpy, H_trans = E_trans + k_B * T
    Electronic H            0.000 [kcal/mol]        0.000 [kJ/mol]       0.00000000 [Eh]
    Translational H         1.481 [kcal/mol]        6.197 [kJ/mol]       0.00236046 [Eh]
    Rotational H            0.889 [kcal/mol]        3.718 [kJ/mol]       0.00141628 [Eh]
    Vibrational H         103.367 [kcal/mol]      432.487 [kJ/mol]       0.16472563 [Eh]
  Correction H            105.737 [kcal/mol]      442.403 [kJ/mol]       0.16850237 [Eh]
  Total H, Enthalpy at  298.15 [K]                                    -454.85567853 [Eh]

  Gibbs free energy, G = H - T * S
    Electronic G            0.000 [kcal/mol]        0.000 [kJ/mol]       0.00000000 [Eh]
    Translational G       -10.594 [kcal/mol]      -44.327 [kJ/mol]      -0.01688325 [Eh]
    Rotational G           -7.730 [kcal/mol]      -32.341 [kJ/mol]      -0.01231807 [Eh]
    Vibrational G          94.964 [kcal/mol]      397.329 [kJ/mol]       0.15133459 [Eh]
  Correction G             76.640 [kcal/mol]      320.661 [kJ/mol]       0.12213326 [Eh]
  Total G, Free enthalpy at  298.15 [K]                               -454.90204764 [Eh]

*** Psi4 exiting successfully. Buy a developer a beer!
