                               Psi4 1.2.1 release

  ==> Input File <==

--------------------------------------------------------------------------

molecule {
0 1
 C   -0.013640455524   -0.304855975907   -0.810379818598
 O   -1.076658993565   -0.439893960784   -1.481825450171
 F    1.062864289563   -0.023598561706    1.294372531015
 F   -1.097616516737    0.080821320964    1.276570700398
 F   -0.104165444803   -1.814358371024    0.969731468779
 H    0.968312521123   -0.646571602118   -1.195237418418
 C   -0.051533518422   -0.505930890741    0.712794309826
--
0 1
 H    0.992026311039    2.914407371958   -1.825047800286
 C    1.211964312257    1.872706905514   -1.617459730801
 H    1.398768059056    1.323234574780   -2.542582410924
 H    2.063852546695    1.797892286290   -0.943598543110
 O    0.085591558919    1.317072805176   -0.932426337620
 H   -0.729913783851    1.169050389932   -1.501740898641
symmetry c1
no_reorient
no_com
}

set{
  basis 6-311++G(d,p)
  freeze_core True
}

set_num_threads(32)
energy('fisapt0')
--------------------------------------------------------------------------

    Molecular point group: c1

    Geometry (in Angstrom), charge = 0, multiplicity = 1:

       Center              X                  Y                   Z               Mass
    ------------   -----------------  -----------------  -----------------  -----------------
         C           -0.013640455524    -0.304855975907    -0.810379818598    12.000000000000
         O           -1.076658993565    -0.439893960784    -1.481825450171    15.994914619560
         F            1.062864289563    -0.023598561706     1.294372531015    18.998403224000
         F           -1.097616516737     0.080821320964     1.276570700398    18.998403224000
         F           -0.104165444803    -1.814358371024     0.969731468779    18.998403224000
         H            0.968312521123    -0.646571602118    -1.195237418418     1.007825032070
         C           -0.051533518422    -0.505930890741     0.712794309826    12.000000000000
         H            0.992026311039     2.914407371958    -1.825047800286     1.007825032070
         C            1.211964312257     1.872706905514    -1.617459730801    12.000000000000
         H            1.398768059056     1.323234574780    -2.542582410924     1.007825032070
         H            2.063852546695     1.797892286290    -0.943598543110     1.007825032070
         O            0.085591558919     1.317072805176    -0.932426337620    15.994914619560
         H           -0.729913783851     1.169050389932    -1.501740898641     1.007825032070

  Charge       = 0
  Multiplicity = 1
  Basis Set: 6-311++G(D,P)
    Blend: 6-311++G(D,P)
  Basis Set: (6-311++G(D,P) AUX)
    Blend: AUG-CC-PVTZ-JKFIT

    Orbital Energies [Eh]
    ---------------------

    Doubly Occupied:

       1A    -26.347552     2A    -26.344008     3A    -26.342717
       4A    -20.668972     5A    -20.505909     6A    -11.511344
       7A    -11.387851     8A    -11.336020     9A     -1.740517
      10A     -1.642899    11A     -1.642181    12A     -1.498030
      13A     -1.344691    14A     -1.036829    15A     -1.006332
      16A     -0.909672    17A     -0.834147    18A     -0.831743
      19A     -0.796997    20A     -0.783829    21A     -0.722705
      22A     -0.715090    23A     -0.705276    24A     -0.687628
      25A     -0.669935    26A     -0.664870    27A     -0.652165
      28A     -0.626581    29A     -0.603264    30A     -0.582085
      31A     -0.570649    32A     -0.442455    33A     -0.419047

  @DF-RHF Final Energy:  -564.63712231036675

   => Energetics <=

    Nuclear Repulsion Energy =            444.7106618905393702
    One-Electron Energy =               -1665.5475863326962553
    Two-Electron Energy =                 656.1998021317901930
    Total Energy =                       -564.6371223103667489

  Dipole Moment: [D]
     X:     4.0542      Y:     3.8701      Z:    -2.1999     Total:     6.0211

  Basis Set: (6-311++G(D,P) AUX)
    Blend: AUG-CC-PVTZ-JKFIT

    SAPT Results
  --------------------------------------------------------------------------------------------------------
    Electrostatics               -181.46060291 [mEh]    -113.86825220 [kcal/mol]    -476.42481293 [kJ/mol]
      Elst10,r                   -181.46060291 [mEh]    -113.86825220 [kcal/mol]    -476.42481293 [kJ/mol]

    Exchange                      345.95924996 [mEh]     217.09271596 [kcal/mol]     908.31601076 [kJ/mol]
      Exch10                      345.95924996 [mEh]     217.09271596 [kcal/mol]     908.31601076 [kJ/mol]
      Exch10(S^2)                 307.60196108 [mEh]     193.02315280 [kcal/mol]     807.60894882 [kJ/mol]

    Induction                    -139.86023211 [mEh]     -87.76362432 [kcal/mol]    -367.20303941 [kJ/mol]
      Ind20,r                    -293.35960636 [mEh]    -184.08593991 [kcal/mol]    -770.21564650 [kJ/mol]
      Exch-Ind20,r                194.86402162 [mEh]     122.27902477 [kcal/mol]     511.61548876 [kJ/mol]
      delta HF,r (2)              -41.36464737 [mEh]     -25.95670919 [kcal/mol]    -108.60288168 [kJ/mol]
      Induction (A<-B)            -42.62972844 [mEh]     -26.75055958 [kcal/mol]    -111.92435201 [kJ/mol]
      Induction (B<-A)            -97.23050368 [mEh]     -61.01306475 [kcal/mol]    -255.27868740 [kJ/mol]

    Dispersion                    -37.36508358 [mEh]     -23.44694491 [kcal/mol]     -98.10202694 [kJ/mol]
      Disp20                      -52.91316365 [mEh]     -33.20351287 [kcal/mol]    -138.92351117 [kJ/mol]
      Exch-Disp20                  15.54808007 [mEh]       9.75656795 [kcal/mol]      40.82148423 [kJ/mol]

  Total HF                         24.63841494 [mEh]      15.46083944 [kcal/mol]      64.68815842 [kJ/mol]
  Total SAPT0                     -12.72666864 [mEh]      -7.98610548 [kcal/mol]     -33.41386852 [kJ/mol]

  --------------------------------------------------------------------------------------------------------

*** Psi4 exiting successfully. Buy a developer a beer!
