                               Psi4 1.2.1 release

  ==> Input File <==

--------------------------------------------------------------------------
molecule{
0 1
    C            0.114283081192     0.298323411498    -1.564720926966
    O           -0.933681714310     0.226443626216    -2.322251970436
    BR           1.580252119363     0.458193703415     0.882876240334
    BR          -1.600513027011     0.641580279657     0.721348752976
    H            1.102963053972     3.543527418724    -2.364951299416
    C            1.328503584354     2.488956786040    -2.221025454663
    H            1.512594980897     2.004222447527    -3.183073665180
    H            2.188708050801     2.377883092360    -1.563589714819
    O            0.196626601110     1.892005232910    -1.574124173045
    H           -0.682114071540     1.574898707014    -2.216542845479
    C           -0.017197409137    -0.116679636361    -0.076066820895
    BR          -0.113721455507    -2.055962672289    -0.083413764549
    H            1.092768890340    -0.045313121271    -1.939602914483

}

basis {
  assign 6-311ppgss
  assign Br def2-tzvpp
}

set{
   freeze_core True
   normal_modes_write True
}

set_num_threads(16)
frequencies('m06-2x')
--------------------------------------------------------------------------

    Molecular point group: c1
  Charge       = 0
  Multiplicity = 1
  Basis Set: ANONYMOUSFF384441
    Blend: 6-311PPGSS + DEF2-TZVPP
  Basis Set: (ANONYMOUSFF384441 AUX)
    Blend: AUG-CC-PVTZ-JKFIT + DEF2-TZVPP-JKFIT
  @DF-RKS Final Energy: -7990.23366873455961
    Total Energy =                      -7990.2336687345596147
    Molecular point group: c1
  Basis Set: ANONYMOUSFF384441
    Blend: 6-311PPGSS + DEF2-TZVPP
  Basis Set: (ANONYMOUSFF384441 AUX)
    Blend: AUG-CC-PVTZ-JKFIT + DEF2-TZVPP-JKFIT
  Basis Set: ANONYMOUSFF384441
    Blend: 6-311PPGSS + DEF2-TZVPP
  Basis Set: (ANONYMOUSFF384441 AUX)
    Blend: AUG-CC-PVTZ-JKFIT + DEF2-TZVPP-JKFIT
  @DF-RKS Final Energy: -7990.23366798876941
    Total Energy =                      -7990.2336679887694117
  Basis Set: ANONYMOUSFF384441
    Blend: 6-311PPGSS + DEF2-TZVPP
  Basis Set: (ANONYMOUSFF384441 AUX)
    Blend: AUG-CC-PVTZ-JKFIT + DEF2-TZVPP-JKFIT
  Basis Set: ANONYMOUSFF384441
    Blend: 6-311PPGSS + DEF2-TZVPP
  @DF-RKS Final Energy: -7990.23366794841058
    Total Energy =                      -7990.2336679484105844
  @DF-RKS Final Energy: -7990.23366899245866
    Total Energy =                      -7990.2336689924586608
  @DF-RKS Final Energy: -7990.23366794673893
    Total Energy =                      -7990.2336679467389331
  @DF-RKS Final Energy: -7990.23366798573443
    Total Energy =                      -7990.2336679857344279
  @DF-RKS Final Energy: -7990.23366844154771
    Total Energy =                      -7990.2336684415477066
  @DF-RKS Final Energy: -7990.23366845519467
    Total Energy =                      -7990.2336684551946746
  @DF-RKS Final Energy: -7990.23366841863663
    Total Energy =                      -7990.2336684186366256
  @DF-RKS Final Energy: -7990.23366885153973
    Total Energy =                      -7990.2336688515388232
  @DF-RKS Final Energy: -7990.23366842030828
    Total Energy =                      -7990.2336684203082768
  @DF-RKS Final Energy: -7990.23366837853700
    Total Energy =                      -7990.2336683785370042
  @DF-RKS Final Energy: -7990.23366876334330
    Total Energy =                      -7990.2336687633433030
  @DF-RKS Final Energy: -7990.23366932228873
    Total Energy =                      -7990.2336693222887334
  @DF-RKS Final Energy: -7990.23366808028368
    Total Energy =                      -7990.2336680802836781
  @DF-RKS Final Energy: -7990.23366874016119
    Total Energy =                      -7990.2336687401611925
  @DF-RKS Final Energy: -7990.23366870102109
    Total Energy =                      -7990.2336687010210881
  @DF-RKS Final Energy: -7990.23366908863409
    Total Energy =                      -7990.2336690886340875
  @DF-RKS Final Energy: -7990.23366830611212
    Total Energy =                      -7990.2336683061121221
  @DF-RKS Final Energy: -7990.23366762926253
    Total Energy =                      -7990.2336676292625270
  @DF-RKS Final Energy: -7990.23366745429576
    Total Energy =                      -7990.2336674542957553
  @DF-RKS Final Energy: -7990.23366764263028
    Total Energy =                      -7990.2336676426302802
  @DF-RKS Final Energy: -7990.23366783562324
    Total Energy =                      -7990.2336678356232369
  @DF-RKS Final Energy: -7990.23366880312005
    Total Energy =                      -7990.2336688031191443
  @DF-RKS Final Energy: -7990.23366819343209
    Total Energy =                      -7990.2336681934320950
  @DF-RKS Final Energy: -7990.23366859806811
    Total Energy =                      -7990.2336685980681068
  @DF-RKS Final Energy: -7990.23366817549322
    Total Energy =                      -7990.2336681754932215
  @DF-RKS Final Energy: -7990.23366742985218
    Total Energy =                      -7990.2336674298521757
  @DF-RKS Final Energy: -7990.23366698444534
    Total Energy =                      -7990.2336669844453354
  @DF-RKS Final Energy: -7990.23366878970046
    Total Energy =                      -7990.2336687897004595
  @DF-RKS Final Energy: -7990.23366803962290
    Total Energy =                      -7990.2336680396228985
  @DF-RKS Final Energy: -7990.23366718359557
    Total Energy =                      -7990.2336671835955713
  @DF-RKS Final Energy: -7990.23366800514668
    Total Energy =                      -7990.2336680051466828
  @DF-RKS Final Energy: -7990.23366667448954
    Total Energy =                      -7990.2336666744895410
  @DF-RKS Final Energy: -7990.23366684962002
    Total Energy =                      -7990.2336668496200218
  @DF-RKS Final Energy: -7990.23366862033163
    Total Energy =                      -7990.2336686203316276
  @DF-RKS Final Energy: -7990.23366820398860
    Total Energy =                      -7990.2336682039886000
  @DF-RKS Final Energy: -7990.23366693887783
    Total Energy =                      -7990.2336669388778319
  Basis Set: (ANONYMOUSFF384441 AUX)
    Blend: AUG-CC-PVTZ-JKFIT + DEF2-TZVPP-JKFIT
  Basis Set: ANONYMOUSFF384441
    Blend: 6-311PPGSS + DEF2-TZVPP
  Basis Set: (ANONYMOUSFF384441 AUX)
    Blend: AUG-CC-PVTZ-JKFIT + DEF2-TZVPP-JKFIT
  @DF-RKS Final Energy: -7990.23366827781501
    Total Energy =                      -7990.2336682778150134
  Basis Set: ANONYMOUSFF384441
    Blend: 6-311PPGSS + DEF2-TZVPP
  Basis Set: (ANONYMOUSFF384441 AUX)
    Blend: AUG-CC-PVTZ-JKFIT + DEF2-TZVPP-JKFIT
    Molecular point group: c1
  Charge       = 0
  Multiplicity = 1
  Basis Set: ANONYMOUSFF384441
    Blend: 6-311PPGSS + DEF2-TZVPP
  Basis Set: (ANONYMOUSFF384441 AUX)
    Blend: AUG-CC-PVTZ-JKFIT + DEF2-TZVPP-JKFIT

    Orbital Energies [Eh]
    ---------------------

    Doubly Occupied:

       1A   -485.397129     2A   -485.392839     3A   -485.389381
       4A    -63.382602     5A    -63.378274     6A    -63.374788
       7A    -57.201043     8A    -57.198390     9A    -57.198327
      10A    -57.196790    11A    -57.194019    12A    -57.193953
      13A    -57.193335    14A    -57.190516    15A    -57.190478
      16A    -19.713017    17A    -19.596576    18A    -10.711926
      19A    -10.689609    20A    -10.626610    21A     -9.048003
      22A     -9.043709    23A     -9.040211    24A     -6.872417
      25A     -6.868408    26A     -6.865008    27A     -6.862722
      28A     -6.862509    29A     -6.858254    30A     -6.858027
      31A     -6.854680    32A     -6.854543    33A     -2.906240
      34A     -2.902840    35A     -2.902614    36A     -2.902235
      37A     -2.898862    38A     -2.898658    39A     -2.898425
      40A     -2.895158    41A     -2.895020    42A     -2.893584
      43A     -2.893576    44A     -2.888980    45A     -2.888972
      46A     -2.885408    47A     -2.885398    48A     -1.255738
      49A     -1.127702    50A     -0.984396    51A     -0.874590
      52A     -0.872149    53A     -0.841465    54A     -0.791625
      55A     -0.673616    56A     -0.653528    57A     -0.601461
      58A     -0.580095    59A     -0.541131    60A     -0.524546
      61A     -0.504535    62A     -0.478354    63A     -0.470793
      64A     -0.461351    65A     -0.387461    66A     -0.385334
      67A     -0.379776    68A     -0.366276    69A     -0.352535
      70A     -0.348349    71A     -0.340000    72A     -0.336037

  @DF-RKS Final Energy: -7990.23366873541272

   => Energetics <=

    Nuclear Repulsion Energy =           1469.1681785926343764
    One-Electron Energy =              -14043.8624416607308376
    Two-Electron Energy =                4730.5012293489562580
    DFT Exchange-Correlation Energy =    -146.0406350162724607
    Empirical Dispersion Energy =           0.0000000000000000
    VV10 Nonlocal Energy =                  0.0000000000000000
    Total Energy =                      -7990.2336687354127207

  Dipole Moment: [D]
     X:     3.0221      Y:     2.8249      Z:    -0.9814     Total:     4.2517

    Molecular point group: c1

    Geometry (in Angstrom), charge = 0, multiplicity = 1:

       Center              X                  Y                   Z               Mass
    ------------   -----------------  -----------------  -----------------  -----------------
         C            0.114283081192     0.298323411498    -1.564720926966    12.000000000000
         O           -0.933681714310     0.226443626216    -2.322251970436    15.994914619560
         BR           1.580252119363     0.458193703415     0.882876240334    78.918337087000
         BR          -1.600513027011     0.641580279657     0.721348752976    78.918337087000
         H            1.102963053972     3.543527418724    -2.364951299416     1.007825032070
         C            1.328503584354     2.488956786040    -2.221025454663    12.000000000000
         H            1.512594980897     2.004222447527    -3.183073665180     1.007825032070
         H            2.188708050801     2.377883092360    -1.563589714819     1.007825032070
         O            0.196626601110     1.892005232910    -1.574124173045    15.994914619560
         H           -0.682114071540     1.574898707014    -2.216542845479     1.007825032070
         C           -0.017197409137    -0.116679636361    -0.076066820895    12.000000000000
         BR          -0.113721455507    -2.055962672289    -0.083413764549    78.918337087000
         H            1.092768890340    -0.045313121271    -1.939602914483     1.007825032070

  Basis Set: ANONYMOUSFF384441
    Blend: 6-311PPGSS + DEF2-TZVPP
  Basis Set: (ANONYMOUSFF384441 AUX)
    Blend: AUG-CC-PVTZ-JKFIT + DEF2-TZVPP-JKFIT

  -Total Gradient:
     Atom            X                  Y                   Z
    ------   -----------------  -----------------  -----------------
       1        0.000061806007     0.000170916806    -0.000137671137
       2       -0.000042099407     0.000050741357    -0.000181564545
       3       -0.000048766265    -0.000035517691    -0.000161245757
       4        0.000001349231     0.000035602787    -0.000143785595
       5        0.000026647545     0.000052036279    -0.000086893753
       6        0.000025294916     0.000050549177    -0.000138292438
       7        0.000006667800     0.000055514757    -0.000104798674
       8        0.000009307682     0.000028334457    -0.000100507081
       9       -0.000006309507    -0.000090524661    -0.000098071256
      10        0.000050416857     0.000064137560    -0.000110698407
      11        0.000062779647     0.000008458035    -0.000128834280
      12       -0.000006328856     0.000061248369    -0.000211710561
      13       -0.000000552630     0.000044994175    -0.000175983067

  Vibration                       1                   8                   9
  Freq [cm^-1]                1411.5991i           67.4902             87.0568
  Irrep                           A                   A                   A
  Reduced mass [u]              1.2062              5.4376              4.4884
  Force const [mDyne/A]        -1.4161              0.0146              0.0200

  Vibration                       10                  11                  12
  Freq [cm^-1]                 127.2212            141.2130            165.2575
  Irrep                           A                   A                   A
  Reduced mass [u]              5.6690             17.5935              3.0922
  Force const [mDyne/A]         0.0541              0.2067              0.0498

  Vibration                       13                  14                  15
  Freq [cm^-1]                 190.6550            193.1386            203.0085
  Irrep                           A                   A                   A
  Reduced mass [u]              5.0341              2.4062              5.7034
  Force const [mDyne/A]         0.1078              0.0529              0.1385

  Vibration                       16                  17                  18
  Freq [cm^-1]                 255.8338            297.5158            340.4629
  Irrep                           A                   A                   A
  Reduced mass [u]              6.3811              5.7772              7.4133
  Force const [mDyne/A]         0.2461              0.3013              0.5063

  Vibration                       19                  20                  21
  Freq [cm^-1]                 570.4939            673.3446            738.2078
  Irrep                           A                   A                   A
  Reduced mass [u]              5.6976              4.9197              7.4422
  Force const [mDyne/A]         1.0926              1.3142              2.3895

  Vibration                       22                  23                  24
  Freq [cm^-1]                 742.9659            808.8385           1004.1203
  Irrep                           A                   A                   A
  Reduced mass [u]              9.0663              8.4899              2.8901
  Force const [mDyne/A]         2.9486              3.2725              1.7169

  Vibration                       25                  26                  27
  Freq [cm^-1]                1077.2329           1137.5669           1186.8657
  Irrep                           A                   A                   A
  Reduced mass [u]              2.8468              1.9831              1.3069
  Force const [mDyne/A]         1.9464              1.5120              1.0847

  Vibration                       28                  29                  30
  Freq [cm^-1]                1235.1968           1268.6792           1342.3102
  Irrep                           A                   A                   A
  Reduced mass [u]              1.2799              1.2481              1.3190
  Force const [mDyne/A]         1.1505              1.1836              1.4003

  Vibration                       31                  32                  33
  Freq [cm^-1]                1453.5439           1485.0639           1501.5038
  Irrep                           A                   A                   A
  Reduced mass [u]              1.8812              1.5560              1.0596
  Force const [mDyne/A]         2.3418              2.0219              1.4074

  Vibration                       34                  35                  36
  Freq [cm^-1]                1510.7186           2195.9542           3007.4131
  Irrep                           A                   A                   A
  Reduced mass [u]              1.0872              1.0596              1.0866
  Force const [mDyne/A]         1.4619              3.0104              5.7903

  Vibration                       37                  38                  39
  Freq [cm^-1]                3074.6050           3166.2096           3193.9109
  Irrep                           A                   A                   A
  Reduced mass [u]              1.0344              1.1015              1.1083
  Force const [mDyne/A]         5.7612              6.5062              6.6612

  ==> Thermochemistry Components <==

  Entropy, S
    Electronic S            0.000 [cal/(mol K)]        0.000 [J/(mol K)]       0.00000000 [mEh/K] (multiplicity = 1)
    Translational S        43.088 [cal/(mol K)]      180.282 [J/(mol K)]       0.06866584 [mEh/K] (mol. weight = 309.7840 [u], P = 101325.00 [Pa])
    Rotational S           31.812 [cal/(mol K)]      133.103 [J/(mol K)]       0.05069643 [mEh/K] (symmetry no. = 1)
    Vibrational S          29.033 [cal/(mol K)]      121.475 [J/(mol K)]       0.04626722 [mEh/K]
  Total S                 103.934 [cal/(mol K)]      434.860 [J/(mol K)]       0.16562949 [mEh/K]
  Correction S              0.000 [cal/(mol K)]        0.000 [J/(mol K)]       0.00000000 [mEh/K]

  Constant volume heat capacity, Cv
    Electronic Cv           0.000 [cal/(mol K)]        0.000 [J/(mol K)]       0.00000000 [mEh/K]
    Translational Cv        2.981 [cal/(mol K)]       12.472 [J/(mol K)]       0.00475022 [mEh/K]
    Rotational Cv           2.981 [cal/(mol K)]       12.472 [J/(mol K)]       0.00475022 [mEh/K]
    Vibrational Cv         26.266 [cal/(mol K)]      109.895 [J/(mol K)]       0.04185697 [mEh/K]
  Total Cv                 32.227 [cal/(mol K)]      134.839 [J/(mol K)]       0.05135741 [mEh/K]
  Correction Cv             0.000 [cal/(mol K)]        0.000 [J/(mol K)]       0.00000000 [mEh/K]

  Constant pressure heat capacity, Cp
    Electronic Cp           0.000 [cal/(mol K)]        0.000 [J/(mol K)]       0.00000000 [mEh/K]
    Translational Cp        4.968 [cal/(mol K)]       20.786 [J/(mol K)]       0.00791704 [mEh/K]
    Rotational Cp           2.981 [cal/(mol K)]       12.472 [J/(mol K)]       0.00475022 [mEh/K]
    Vibrational Cp         26.266 [cal/(mol K)]      109.895 [J/(mol K)]       0.04185697 [mEh/K]
  Total Cp                 34.214 [cal/(mol K)]      143.153 [J/(mol K)]       0.05452422 [mEh/K]
  Correction Cp             0.000 [cal/(mol K)]        0.000 [J/(mol K)]       0.00000000 [mEh/K]

  ==> Thermochemistry Energy Analysis <==

  Raw electronic energy, E0
  Total E0, Electronic energy at well bottom at 0 [K]                -7990.23366874 [Eh]

  Zero-point energy, ZPE_vib = Sum_i nu_i / 2
    Electronic ZPE          0.000 [kcal/mol]        0.000 [kJ/mol]       0.00000000 [Eh]
    Translational ZPE       0.000 [kcal/mol]        0.000 [kJ/mol]       0.00000000 [Eh]
    Rotational ZPE          0.000 [kcal/mol]        0.000 [kJ/mol]       0.00000000 [Eh]
    Vibrational ZPE        49.240 [kcal/mol]      206.018 [kJ/mol]       0.07846828 [Eh]       17221.794 [cm^-1]
  Correction ZPE           49.240 [kcal/mol]      206.018 [kJ/mol]       0.07846828 [Eh]       17221.794 [cm^-1]
  Total ZPE, Electronic energy at 0 [K]                              -7990.15520046 [Eh]

  Thermal Energy, E (includes ZPE)
    Electronic E            0.000 [kcal/mol]        0.000 [kJ/mol]       0.00000000 [Eh]
    Translational E         0.889 [kcal/mol]        3.718 [kJ/mol]       0.00141628 [Eh]
    Rotational E            0.889 [kcal/mol]        3.718 [kJ/mol]       0.00141628 [Eh]
    Vibrational E          53.774 [kcal/mol]      224.992 [kJ/mol]       0.08569505 [Eh]
  Correction E             55.552 [kcal/mol]      232.429 [kJ/mol]       0.08852761 [Eh]
  Total E, Electronic energy at  298.15 [K]                          -7990.14514113 [Eh]

  Enthalpy, H_trans = E_trans + k_B * T
    Electronic H            0.000 [kcal/mol]        0.000 [kJ/mol]       0.00000000 [Eh]
    Translational H         1.481 [kcal/mol]        6.197 [kJ/mol]       0.00236046 [Eh]
    Rotational H            0.889 [kcal/mol]        3.718 [kJ/mol]       0.00141628 [Eh]
    Vibrational H          53.774 [kcal/mol]      224.992 [kJ/mol]       0.08569505 [Eh]
  Correction H             56.144 [kcal/mol]      234.908 [kJ/mol]       0.08947179 [Eh]
  Total H, Enthalpy at  298.15 [K]                                   -7990.14419694 [Eh]

  Gibbs free energy, G = H - T * S
    Electronic G            0.000 [kcal/mol]        0.000 [kJ/mol]       0.00000000 [Eh]
    Translational G       -11.366 [kcal/mol]      -47.554 [kJ/mol]      -0.01811226 [Eh]
    Rotational G           -8.596 [kcal/mol]      -35.966 [kJ/mol]      -0.01369886 [Eh]
    Vibrational G          45.118 [kcal/mol]      188.775 [kJ/mol]       0.07190048 [Eh]
  Correction G             25.156 [kcal/mol]      105.255 [kJ/mol]       0.04008936 [Eh]
  Total G, Free enthalpy at  298.15 [K]                              -7990.19357938 [Eh]

*** Psi4 exiting successfully. Buy a developer a beer!
