                               Psi4 1.2.1 release

  ==> Input File <==

--------------------------------------------------------------------------
molecule{
0 2
    C            0.356299825253     1.013243057490    -0.166403618312
    H           -0.086635603400     0.686580639148    -1.101413887066
    H           -0.002613359048     1.950166909144     0.240199946630
    C            1.545351482127     0.508939188583     0.266605917293
    H            2.044663795160     0.942899322873     1.127490601300
    C           -1.428026199267    -0.274656937984     0.650421646081
    H           -0.857947879160    -1.179509965545     0.819655070490
    H           -1.787676463914     0.254633334095     1.534516198356
    N            2.154609092859    -0.641092588855    -0.221587032878
    H            1.792210520259    -1.086660484431    -1.055913933760
    H            3.095480323942    -0.879398998425     0.059977252876
    O           -2.327625728243    -0.443483300014    -0.436180972570
    H           -2.832638360371     0.403185904264    -0.560745555406
}

set{
   basis 3-21G
   freeze_core True
   reference uhf
   full_hess_every 0
   normal_modes_write True
}

set_num_threads(1)
frequencies('b3lyp')
--------------------------------------------------------------------------

    Molecular point group: c1
  Charge       = 0
  Multiplicity = 2
  Basis Set: 3-21G
    Blend: 3-21G
  Basis Set: (3-21G AUX)
    Blend: DEF2-SVP-JKFIT
  @DF-UKS Final Energy:  -247.61806098588534
    Total Energy =                       -247.6180609858853359
    Molecular point group: c1
  Basis Set: 3-21G
    Blend: 3-21G
  Basis Set: (3-21G AUX)
    Blend: DEF2-SVP-JKFIT
  Basis Set: 3-21G
    Blend: 3-21G
  Basis Set: (3-21G AUX)
    Blend: DEF2-SVP-JKFIT
  @DF-UKS Final Energy:  -247.61806031114145
    Total Energy =                       -247.6180603111414769
  Basis Set: 3-21G
    Blend: 3-21G
  Basis Set: (3-21G AUX)
    Blend: DEF2-SVP-JKFIT
  Basis Set: 3-21G
    Blend: 3-21G
  @DF-UKS Final Energy:  -247.61806052703969
    Total Energy =                       -247.6180605270397166
  @DF-UKS Final Energy:  -247.61806033746143
    Total Energy =                       -247.6180603374614577
  @DF-UKS Final Energy:  -247.61806037549553
    Total Energy =                       -247.6180603754955030
  @DF-UKS Final Energy:  -247.61806015766206
    Total Energy =                       -247.6180601576620575
  @DF-UKS Final Energy:  -247.61806008744065
    Total Energy =                       -247.6180600874406537
  @DF-UKS Final Energy:  -247.61805969936205
    Total Energy =                       -247.6180596993620782
  @DF-UKS Final Energy:  -247.61805980212409
    Total Energy =                       -247.6180598021240655
  @DF-UKS Final Energy:  -247.61806028582305
    Total Energy =                       -247.6180602858229918
  @DF-UKS Final Energy:  -247.61806000230689
    Total Energy =                       -247.6180600023068905
  @DF-UKS Final Energy:  -247.61805773537617
    Total Energy =                       -247.6180577353761407
  @DF-UKS Final Energy:  -247.61805776389758
    Total Energy =                       -247.6180577638976104
  @DF-UKS Final Energy:  -247.61806012207853
    Total Energy =                       -247.6180601220785604
  @DF-UKS Final Energy:  -247.61805982658399
    Total Energy =                       -247.6180598265840445
  @DF-UKS Final Energy:  -247.61805754836155
    Total Energy =                       -247.6180575483616053
  @DF-UKS Final Energy:  -247.61805759236654
    Total Energy =                       -247.6180575923665401
  @DF-UKS Final Energy:  -247.61806018316145
    Total Energy =                       -247.6180601831614467
  @DF-UKS Final Energy:  -247.61805991573391
    Total Energy =                       -247.6180599157338804
  @DF-UKS Final Energy:  -247.61806042849150
    Total Energy =                       -247.6180604284916171
  @DF-UKS Final Energy:  -247.61805891961797
    Total Energy =                       -247.6180589196179085
  @DF-UKS Final Energy:  -247.61806005215954
    Total Energy =                       -247.6180600521594783
  @DF-UKS Final Energy:  -247.61806011009816
    Total Energy =                       -247.6180601100981562
  @DF-UKS Final Energy:  -247.61805960978086
    Total Energy =                       -247.6180596097808007
  @DF-UKS Final Energy:  -247.61805981118988
    Total Energy =                       -247.6180598111898234
  @DF-UKS Final Energy:  -247.61805868924228
    Total Energy =                       -247.6180586892422752
  @DF-UKS Final Energy:  -247.61805865739581
    Total Energy =                       -247.6180586573957498
  @DF-UKS Final Energy:  -247.61805994366512
    Total Energy =                       -247.6180599436652017
  @DF-UKS Final Energy:  -247.61805976920363
    Total Energy =                       -247.6180597692036258
  @DF-UKS Final Energy:  -247.61805992820359
    Total Energy =                       -247.6180599282036212
  @DF-UKS Final Energy:  -247.61805964635096
    Total Energy =                       -247.6180596463509005
  @DF-UKS Final Energy:  -247.61805836458268
    Total Energy =                       -247.6180583645826800
  @DF-UKS Final Energy:  -247.61805845885169
    Total Energy =                       -247.6180584588516922
  @DF-UKS Final Energy:  -247.61805573326262
    Total Energy =                       -247.6180557332625938
  @DF-UKS Final Energy:  -247.61805603774962
    Total Energy =                       -247.6180560377496533
  @DF-UKS Final Energy:  -247.61806055322040
    Total Energy =                       -247.6180605532204595
  @DF-UKS Final Energy:  -247.61806071971603
    Total Energy =                       -247.6180607197159986
  @DF-UKS Final Energy:  -247.61805516439534
    Total Energy =                       -247.6180551643953152
  Basis Set: (3-21G AUX)
    Blend: DEF2-SVP-JKFIT
  Basis Set: 3-21G
    Blend: 3-21G
  Basis Set: (3-21G AUX)
    Blend: DEF2-SVP-JKFIT
  @DF-UKS Final Energy:  -247.61805532929770
    Total Energy =                       -247.6180553292977606
  Basis Set: 3-21G
    Blend: 3-21G
  Basis Set: (3-21G AUX)
    Blend: DEF2-SVP-JKFIT
    Molecular point group: c1
  Charge       = 0
  Multiplicity = 2
  Basis Set: 3-21G
    Blend: 3-21G
  Basis Set: (3-21G AUX)
    Blend: DEF2-SVP-JKFIT

    Orbital Energies [Eh]
    ---------------------

    Alpha Occupied:

       1A    -19.034133     2A    -14.244249     3A    -10.139800
       4A    -10.136411     5A    -10.085713     6A     -1.009081
       7A     -0.891784     8A     -0.717505     9A     -0.639600
      10A     -0.574519    11A     -0.518715    12A     -0.484376
      13A     -0.459808    14A     -0.411378    15A     -0.396267
      16A     -0.365943    17A     -0.346792    18A     -0.322861
      19A     -0.300215    20A     -0.203179    21A     -0.111471

    Alpha Virtual:

      22A      0.083153    23A      0.102017    24A      0.108292
      25A      0.145286    26A      0.167262    27A      0.194101
      28A      0.212939    29A      0.215092    30A      0.231827
      31A      0.261195    32A      0.373436    33A      0.404133
      34A      0.666491    35A      0.695836    36A      0.739906
      37A      0.763754    38A      0.794363    39A      0.817771
      40A      0.846586    41A      0.887466    42A      0.916661
      43A      0.943584    44A      0.979991    45A      1.024620
      46A      1.066925    47A      1.075886    48A      1.105657
      49A      1.125072    50A      1.139361    51A      1.280230
      52A      1.374979    53A      1.381473    54A      1.510809
      55A      1.558951    56A      1.654871    57A      1.715465
      58A      1.777652    59A      2.045877    60A      2.469603
      61A      2.954873

    Beta Occupied:

       1A    -19.030651     2A    -14.242080     3A    -10.132004
       4A    -10.128212     5A    -10.087763     6A     -0.999903
       7A     -0.885452     8A     -0.713621     9A     -0.618237
      10A     -0.571387    11A     -0.517085    12A     -0.476396
      13A     -0.456875    14A     -0.404790    15A     -0.393288
      16A     -0.357742    17A     -0.327647    18A     -0.306535
      19A     -0.285342    20A     -0.185020

    Beta Virtual:

      21A      0.001507    22A      0.099847    23A      0.106837
      24A      0.116212    25A      0.146727    26A      0.173989
      27A      0.197287    28A      0.214332    29A      0.224401
      30A      0.235294    31A      0.274883    32A      0.379198
      33A      0.405553    34A      0.670835    35A      0.702468
      36A      0.749330    37A      0.783517    38A      0.812073
      39A      0.821093    40A      0.855042    41A      0.891811
      42A      0.927110    43A      0.945052    44A      0.983146
      45A      1.026147    46A      1.071442    47A      1.077533
      48A      1.112243    49A      1.126545    50A      1.146458
      51A      1.282907    52A      1.376591    53A      1.391117
      54A      1.524475    55A      1.572033    56A      1.659993
      57A      1.721462    58A      1.781005    59A      2.050783
      60A      2.475083    61A      2.962827

    Final Occupation by Irrep:
              A
    DOCC [    20 ]
    SOCC [     1 ]

  Energy converged.

  @DF-UKS Final Energy:  -247.61806098584475

   => Energetics <=

    Nuclear Repulsion Energy =            167.9522596116291879
    One-Electron Energy =                -668.5019761904612778
    Two-Electron Energy =                 280.9361942126478198
    DFT Exchange-Correlation Energy =     -28.0045386196604262
    Empirical Dispersion Energy =           0.0000000000000000
    VV10 Nonlocal Energy =                  0.0000000000000000
    Total Energy =                       -247.6180609858446928

  UHF NO Occupations:
  HONO-2 :   19  A 1.9996736
  HONO-1 :   20  A 1.9899952
  HONO-0 :   21  A 1.0000000
  LUNO+0 :   22  A 0.0100048
  LUNO+1 :   23  A 0.0003264
  LUNO+2 :   24  A 0.0001796
  LUNO+3 :   25  A 0.0001576

Properties will be evaluated at   0.000000,   0.000000,   0.000000 [a0]

Properties computed using the SCF density matrix

  Nuclear Dipole Moment: [e a0]
     X:     1.2621      Y:     1.0234      Z:     0.9958

  Electronic Dipole Moment: [e a0]
     X:    -0.7607      Y:    -0.8047      Z:    -0.9387

  Dipole Moment: [e a0]
     X:     0.5013      Y:     0.2186      Z:     0.0571     Total:     0.5499

  Dipole Moment: [D]
     X:     1.2743      Y:     0.5556      Z:     0.1452     Total:     1.3977

*** tstop() called on DESKTOP-QL22TIG at Thu Mar 21 15:03:42 2019
Module time:
	user time   =      15.53 seconds =       0.26 minutes
	system time =       0.38 seconds =       0.01 minutes
	total time  =         17 seconds =       0.28 minutes
Total time:
	user time   =    1231.70 seconds =      20.53 minutes
	system time =      41.47 seconds =       0.69 minutes
	total time  =       1291 seconds =      21.52 minutes

*** tstart() called on DESKTOP-QL22TIG
*** at Thu Mar 21 15:03:42 2019

         ------------------------------------------------------------
                                   SCF GRAD
                          Rob Parrish, Justin Turney,
                       Andy Simmonett, and Alex Sokolov
         ------------------------------------------------------------

  ==> Geometry <==

    Molecular point group: c1
    Full point group: C1

    Geometry (in Angstrom), charge = 0, multiplicity = 2:

       Center              X                  Y                   Z               Mass
    ------------   -----------------  -----------------  -----------------  -----------------
         C            0.356299825253     1.013243057490    -0.166403618312    12.000000000000
         H           -0.086635603400     0.686580639148    -1.101413887066     1.007825032070
         H           -0.002613359048     1.950166909144     0.240199946630     1.007825032070
         C            1.545351482127     0.508939188583     0.266605917293    12.000000000000
         H            2.044663795160     0.942899322873     1.127490601300     1.007825032070
         C           -1.428026199267    -0.274656937984     0.650421646081    12.000000000000
         H           -0.857947879160    -1.179509965545     0.819655070490     1.007825032070
         H           -1.787676463914     0.254633334095     1.534516198356     1.007825032070
         N            2.154609092859    -0.641092588855    -0.221587032878    14.003074004780
         H            1.792210520259    -1.086660484431    -1.055913933760     1.007825032070
         H            3.095480323942    -0.879398998425     0.059977252876     1.007825032070
         O           -2.327625728243    -0.443483300014    -0.436180972570    15.994914619560
         H           -2.832638360371     0.403185904264    -0.560745555406     1.007825032070

  Nuclear repulsion =  167.952259611629188

  ==> Basis Set <==

  Basis Set: 3-21G
    Blend: 3-21G
    Number of shells: 41
    Number of basis function: 61
    Number of Cartesian functions: 61
    Spherical Harmonics?: false
    Max angular momentum: 1

  ==> DFJKGrad: Density-Fitted SCF Gradients <==

    Gradient:                    1
    J tasked:                  Yes
    K tasked:                  Yes
    wK tasked:                  No
    OpenMP threads:              1
    Integrals threads:           1
    Memory (MB):               375
    Schwarz Cutoff:          0E+00
    Fitting Condition:       1E-12

   => Auxiliary Basis Set <=

  Basis Set: (3-21G AUX)
    Blend: DEF2-SVP-JKFIT
    Number of shells: 173
    Number of basis function: 613
    Number of Cartesian functions: 613
    Spherical Harmonics?: false
    Max angular momentum: 4

  ==> DFT Potential <==

   => Composite Functional: B3LYP <=

    B3LYP Hyb-GGA Exchange-Correlation Functional

    P. J. Stephens, F. J. Devlin, C. F. Chabalowski, and M. J. Frisch, J. Phys. Chem. 98, 11623 (1994)

    Deriv               =              1
    GGA                 =           TRUE
    Meta                =          FALSE

    Exchange Hybrid     =           TRUE
    MP2 Hybrid          =          FALSE

   => Exchange Functionals <=

    0.0800   Slater exchange
    0.7200         Becke 88

   => Exact (HF) Exchange <=

    0.2000               HF

   => Correlation Functionals <=

    0.1900   Vosko, Wilk & Nusair (VWN5_RPA)
    0.8100   Lee, Yang & Parr

   => Molecular Quadrature <=

    Radial Scheme       =       TREUTLER
    Pruning Scheme      =           FLAT
    Nuclear Scheme      =       TREUTLER

    BS radius alpha     =              1
    Pruning alpha       =              1
    Radial Points       =             75
    Spherical Points    =            302
    Total Points        =         285419
    Total Blocks        =           2196
    Max Points          =            256
    Max Functions       =             57

  -Total Gradient:
     Atom            X                  Y                   Z
    ------   -----------------  -----------------  -----------------
       1       -0.000064747854    -0.000010720051     0.000024255589
       2       -0.000004129373     0.000036572383    -0.000010399491
       3        0.000033187830     0.000002412870     0.000019352773
       4        0.000044163648    -0.000062914690    -0.000012712917
       5        0.000005678729     0.000009548717    -0.000008110619
       6        0.000007730565    -0.000027571773    -0.000073204318
       7        0.000023871925     0.000024968240     0.000029108792
       8       -0.000013212712     0.000022414370    -0.000023682751
       9       -0.000028964820    -0.000018730265     0.000039324524
      10        0.000027708747     0.000023942094    -0.000012780124
      11       -0.000025742797     0.000004567862    -0.000003691374
      12        0.000011857009    -0.000003407102     0.000056783789
      13       -0.000006151037    -0.000014356443    -0.000001054217

*** tstop() called on DESKTOP-QL22TIG at Thu Mar 21 15:03:45 2019
Module time:
	user time   =       2.39 seconds =       0.04 minutes
	system time =       0.09 seconds =       0.00 minutes
	total time  =          3 seconds =       0.05 minutes
Total time:
	user time   =    1234.09 seconds =      20.57 minutes
	system time =      41.56 seconds =       0.69 minutes
	total time  =       1294 seconds =      21.57 minutes

-------------------------------------------------------------

  Computing second-derivative from gradients using projected,
  symmetry-adapted, cartesian coordinates (fd_freq_1).

  67 gradients passed in, including the reference geometry.
  Generating complete list of displacements from unique ones.

-------------------------------------------------------------

  ==> Harmonic Vibrational Analysis <==

  non-mass-weighted Hessian:       Symmetric? True   Hermitian? True   Lin Dep Dim?  6 (0)
  projection of translations (True) and rotations (True) removed 6 degrees of freedom (6)
  total projector:                 Symmetric? True   Hermitian? True   Lin Dep Dim?  6 (6)
  mass-weighted Hessian:           Symmetric? True   Hermitian? True   Lin Dep Dim?  6 (0)
  pre-proj  low-frequency mode:    0.0000i [cm^-1]
  pre-proj  low-frequency mode:    0.0000i [cm^-1]
  pre-proj  low-frequency mode:    0.0000i [cm^-1]
  pre-proj  low-frequency mode:    0.0000i [cm^-1]
  pre-proj  low-frequency mode:    0.0000i [cm^-1]
  pre-proj  low-frequency mode:    0.0000  [cm^-1]
  pre-proj  low-frequency mode:    0.0000  [cm^-1]
  pre-proj  low-frequency mode:   49.2342  [cm^-1]
  pre-proj  low-frequency mode:   82.2487  [cm^-1]
  pre-proj  all modes:['372.0052i' '0.0000i' '0.0000i' '0.0000i' '0.0000i' '0.0000' '0.0000'
 '49.2342' '82.2487' '116.6097' '203.3732' '276.6080' '323.6911'
 '447.2307' '466.9149' '522.0733' '723.5144' '787.6948' '880.7068'
 '947.3967' '1003.8593' '1040.9877' '1046.5554' '1100.4351' '1294.9267'
 '1338.4009' '1376.6006' '1504.2355' '1518.9736' '1628.2027' '1700.6565'
 '3074.7432' '3162.1108' '3176.7053' '3237.7688' '3252.7704' '3485.7863'
 '3541.7008' '3661.0254']
  projected mass-weighted Hessian: Symmetric? True   Hermitian? True   Lin Dep Dim?  6 (6)
  post-proj low-frequency mode:  372.0052i [cm^-1] (V)
  post-proj low-frequency mode:    0.0000i [cm^-1] (TR)
  post-proj low-frequency mode:    0.0000i [cm^-1] (TR)
  post-proj low-frequency mode:    0.0000  [cm^-1] (TR)
  post-proj low-frequency mode:    0.0000  [cm^-1] (TR)
  post-proj low-frequency mode:    0.0000  [cm^-1] (TR)
  post-proj low-frequency mode:    0.0000  [cm^-1] (TR)
  post-proj low-frequency mode:   49.2342  [cm^-1] (V)
  post-proj low-frequency mode:   82.2487  [cm^-1] (V)
  post-proj  all modes:['372.0052i' '0.0000i' '0.0000i' '0.0000' '0.0000' '0.0000' '0.0000'
 '49.2342' '82.2487' '116.6097' '203.3732' '276.6080' '323.6911'
 '447.2307' '466.9149' '522.0733' '723.5144' '787.6948' '880.7068'
 '947.3967' '1003.8593' '1040.9877' '1046.5554' '1100.4351' '1294.9267'
 '1338.4009' '1376.6006' '1504.2355' '1518.9736' '1628.2027' '1700.6565'
 '3074.7432' '3162.1108' '3176.7053' '3237.7688' '3252.7704' '3485.7863'
 '3541.7008' '3661.0254']

  Vibration                       1                   8                   9
  Freq [cm^-1]                372.0052i            49.2342             82.2487
  Irrep                           A                   A                   A
  Reduced mass [u]              7.6485              3.5085              2.7466
  Force const [mDyne/A]        -0.6236              0.0050              0.0109
  Turning point v=0 [a0]        0.0000              0.8349              0.7300
  RMS dev v=0 [a0 u^1/2]        0.0000              1.1058              0.8555
  Char temp [K]                 0.0000             70.8370             118.3374
  ----------------------------------------------------------------------------------
      1   C               -0.40 -0.32  0.18   -0.00  0.14  0.11    0.06  0.16 -0.07
      2   H                0.12  0.07 -0.22   -0.09  0.21  0.12    0.08  0.21 -0.10
      3   H               -0.16 -0.09 -0.11    0.11  0.15  0.17    0.08  0.16 -0.06
      4   C               -0.07 -0.03  0.05   -0.02 -0.01  0.00   -0.02  0.05  0.01
      5   H               -0.13 -0.02  0.07    0.09 -0.10 -0.02   -0.03 -0.00  0.04
      6   C                0.41  0.28 -0.23    0.01  0.13  0.07    0.18 -0.09 -0.13
      7   H                0.11  0.10 -0.07    0.09  0.23  0.32    0.37 -0.03 -0.44
      8   H                0.40  0.18 -0.15   -0.22  0.23 -0.08    0.31 -0.32  0.07
      9   N               -0.02  0.01 -0.01   -0.21 -0.07 -0.08   -0.17 -0.08  0.11
     10   H               -0.00  0.03 -0.03   -0.35 -0.01 -0.06   -0.16  0.01  0.05
     11   H                0.01  0.06 -0.04   -0.21 -0.18 -0.19   -0.13 -0.06  0.01
     12   O                0.03  0.01  0.05    0.23 -0.15 -0.07   -0.04 -0.01  0.05
     13   H                0.10  0.04 -0.04    0.12 -0.24 -0.27   -0.21 -0.07  0.34

  Vibration                       10                  11                  12
  Freq [cm^-1]                 116.6097            203.3732            276.6080
  Irrep                           A                   A                   A
  Reduced mass [u]              3.1363              1.1608              1.6506
  Force const [mDyne/A]         0.0251              0.0283              0.0744
  Turning point v=0 [a0]        0.5738              0.7142              0.5135
  RMS dev v=0 [a0 u^1/2]        0.7185              0.5441              0.4665
  Char temp [K]                167.7751            292.6084            397.9768
  ----------------------------------------------------------------------------------
      1   C               -0.13 -0.08 -0.03   -0.02  0.01 -0.02    0.00 -0.02  0.13
      2   H               -0.25 -0.28  0.10   -0.02  0.00 -0.01   -0.05 -0.02  0.16
      3   H               -0.14 -0.04 -0.13    0.02  0.04 -0.06    0.09  0.04  0.07
      4   C               -0.04  0.07 -0.10   -0.03 -0.02  0.00    0.13  0.08 -0.05
      5   H                0.07  0.27 -0.26   -0.04 -0.02  0.01    0.34  0.25 -0.26
      6   C                0.03 -0.16  0.12    0.02 -0.02  0.02   -0.02 -0.01 -0.06
      7   H               -0.01 -0.21 -0.03    0.02 -0.03 -0.02   -0.08 -0.04 -0.04
      8   H               -0.05 -0.33  0.19    0.01 -0.07  0.05    0.00 -0.00 -0.06
      9   N               -0.08 -0.03  0.08    0.02  0.07 -0.06    0.01  0.01 -0.00
     10   H               -0.20 -0.19  0.21   -0.00 -0.14  0.08   -0.45 -0.45  0.45
     11   H                0.04  0.18 -0.14   -0.38 -0.57  0.68   -0.03 -0.15 -0.04
     12   O                0.19  0.17 -0.06    0.02  0.01  0.01   -0.08 -0.03 -0.02
     13   H                0.27  0.24  0.07    0.08  0.04 -0.00   -0.07 -0.02 -0.03

  Vibration                       13                  14                  15
  Freq [cm^-1]                 323.6911            447.2307            466.9149
  Irrep                           A                   A                   A
  Reduced mass [u]              1.1778              1.4114              1.8814
  Force const [mDyne/A]         0.0727              0.1663              0.2417
  Turning point v=0 [a0]        0.5620              0.4367              0.3702
  RMS dev v=0 [a0 u^1/2]        0.4313              0.3669              0.3591
  Char temp [K]                465.7187            643.4644            671.7856
  ----------------------------------------------------------------------------------
      1   C                0.02  0.03 -0.02   -0.03 -0.01  0.08    0.08 -0.12 -0.04
      2   H                0.09  0.07 -0.07   -0.13 -0.10  0.15    0.31 -0.47 -0.04
      3   H               -0.03 -0.01  0.02    0.11  0.10 -0.06   -0.15 -0.06 -0.40
      4   C               -0.01  0.01  0.02    0.08  0.07 -0.07    0.08  0.07  0.15
      5   H               -0.05 -0.04  0.07    0.20  0.16 -0.19    0.11  0.07  0.12
      6   C                0.03 -0.07 -0.02   -0.02 -0.01 -0.01   -0.01 -0.01  0.01
      7   H               -0.19 -0.18  0.13    0.03  0.01 -0.06   -0.07 -0.04  0.06
      8   H                0.21  0.20 -0.11   -0.03 -0.05  0.01    0.01  0.06 -0.03
      9   N               -0.03  0.01 -0.00   -0.04 -0.06  0.04   -0.11  0.07 -0.05
     10   H               -0.11 -0.01  0.05    0.44  0.47 -0.46   -0.30  0.36 -0.12
     11   H               -0.00  0.03 -0.09   -0.11 -0.13  0.23   -0.15 -0.23 -0.19
     12   O               -0.04 -0.01  0.04   -0.04 -0.02  0.00    0.01  0.01 -0.01
     13   H                0.64  0.32 -0.48    0.17  0.08 -0.18   -0.13 -0.05  0.11

  Vibration                       16                  17                  18
  Freq [cm^-1]                 522.0733            723.5144            787.6948
  Irrep                           A                   A                   A
  Reduced mass [u]              1.1208              1.4827              1.0502
  Force const [mDyne/A]         0.1800              0.4573              0.3839
  Turning point v=0 [a0]        0.4536              0.3350              0.3815
  RMS dev v=0 [a0 u^1/2]        0.3396              0.2885              0.2765
  Char temp [K]                751.1460           1040.9746           1133.3157
  ----------------------------------------------------------------------------------
      1   C               -0.01  0.02  0.01   -0.01 -0.05 -0.02    0.04 -0.02 -0.01
      2   H               -0.06  0.08  0.02    0.24  0.32 -0.27   -0.24 -0.24  0.21
      3   H               -0.01 -0.02  0.10   -0.29 -0.32  0.36   -0.34 -0.33  0.35
      4   C                0.00  0.02 -0.03    0.11  0.12 -0.10   -0.01  0.01 -0.00
      5   H               -0.01  0.00 -0.02   -0.30 -0.31  0.36   -0.02  0.02 -0.01
      6   C                0.03 -0.07 -0.02   -0.02  0.01  0.02   -0.03 -0.01 -0.02
      7   H               -0.38 -0.26  0.35   -0.07 -0.02  0.03    0.42  0.27 -0.20
      8   H                0.28  0.51 -0.28   -0.17 -0.15  0.07    0.31  0.31 -0.10
      9   N               -0.01 -0.01  0.02   -0.02 -0.02  0.03   -0.01  0.01  0.00
     10   H                0.09  0.06 -0.07   -0.05  0.02  0.02   -0.01 -0.01  0.01
     11   H               -0.04 -0.03  0.09   -0.06 -0.14  0.05   -0.03 -0.03  0.04
     12   O                0.02  0.02 -0.02    0.01  0.00  0.00    0.01  0.01  0.01
     13   H               -0.28 -0.11  0.32   -0.01 -0.01 -0.01    0.03  0.01 -0.05

  Vibration                       19                  20                  21
  Freq [cm^-1]                 880.7068            947.3967           1003.8593
  Irrep                           A                   A                   A
  Reduced mass [u]              1.3504              1.1539              1.4032
  Force const [mDyne/A]         0.6171              0.6102              0.8332

  Vibration                       22                  23                  24
  Freq [cm^-1]                1040.9877           1046.5554           1100.4351
  Irrep                           A                   A                   A
  Reduced mass [u]              1.8272              1.6957              1.6439
  Force const [mDyne/A]         1.1666              1.0943              1.1729

  Vibration                       25                  26                  27
  Freq [cm^-1]                1294.9267           1338.4009           1376.6006
  Irrep                           A                   A                   A
  Reduced mass [u]              2.0792              1.3083              1.2645
  Force const [mDyne/A]         2.0542              1.3808              1.4118

  Vibration                       28                  29                  30
  Freq [cm^-1]                1504.2355           1518.9736           1628.2027
  Irrep                           A                   A                   A
  Reduced mass [u]              1.2235              1.1074              2.6410
  Force const [mDyne/A]         1.6312              1.5054              4.1251

  Vibration                       31                  32                  33
  Freq [cm^-1]                1700.6565           3074.7432           3162.1108
  Irrep                           A                   A                   A
  Reduced mass [u]              1.1430              1.0551              1.0582
  Force const [mDyne/A]         1.9478              5.8770              6.2338

  Vibration                       34                  35                  36
  Freq [cm^-1]                3176.7053           3237.7688           3252.7704
  Irrep                           A                   A                   A
  Reduced mass [u]              1.0889              1.1113              1.1131
  Force const [mDyne/A]         6.4740              6.8639              6.9390

  Vibration                       37                  38                  39
  Freq [cm^-1]                3485.7863           3541.7008           3661.0254
  Irrep                           A                   A                   A
  Reduced mass [u]              1.0661              1.0443              1.1018
  Force const [mDyne/A]         7.6320              7.7180              8.7011

  ==> Thermochemistry Components <==

  Entropy, S
    Electronic S            1.377 [cal/(mol K)]        5.763 [J/(mol K)]       0.00219507 [mEh/K] (multiplicity = 2)
    Translational S        38.823 [cal/(mol K)]      162.435 [J/(mol K)]       0.06186832 [mEh/K] (mol. weight = 74.0606 [u], P = 101325.00 [Pa])
    Rotational S           26.550 [cal/(mol K)]      111.087 [J/(mol K)]       0.04231088 [mEh/K] (symmetry no. = 1)
    Vibrational S          20.124 [cal/(mol K)]       84.198 [J/(mol K)]       0.03206926 [mEh/K]
  Total S                  86.875 [cal/(mol K)]      363.483 [J/(mol K)]       0.13844352 [mEh/K]
  Correction S              0.000 [cal/(mol K)]        0.000 [J/(mol K)]       0.00000000 [mEh/K]

  Constant volume heat capacity, Cv
    Electronic Cv           0.000 [cal/(mol K)]        0.000 [J/(mol K)]       0.00000000 [mEh/K]
    Translational Cv        2.981 [cal/(mol K)]       12.472 [J/(mol K)]       0.00475022 [mEh/K]
    Rotational Cv           2.981 [cal/(mol K)]       12.472 [J/(mol K)]       0.00475022 [mEh/K]
    Vibrational Cv         19.308 [cal/(mol K)]       80.783 [J/(mol K)]       0.03076869 [mEh/K]
  Total Cv                 25.269 [cal/(mol K)]      105.727 [J/(mol K)]       0.04026914 [mEh/K]
  Correction Cv             0.000 [cal/(mol K)]        0.000 [J/(mol K)]       0.00000000 [mEh/K]

  Constant pressure heat capacity, Cp
    Electronic Cp           0.000 [cal/(mol K)]        0.000 [J/(mol K)]       0.00000000 [mEh/K]
    Translational Cp        4.968 [cal/(mol K)]       20.786 [J/(mol K)]       0.00791704 [mEh/K]
    Rotational Cp           2.981 [cal/(mol K)]       12.472 [J/(mol K)]       0.00475022 [mEh/K]
    Vibrational Cp         19.308 [cal/(mol K)]       80.783 [J/(mol K)]       0.03076869 [mEh/K]
  Total Cp                 27.256 [cal/(mol K)]      114.041 [J/(mol K)]       0.04343595 [mEh/K]
  Correction Cp             0.000 [cal/(mol K)]        0.000 [J/(mol K)]       0.00000000 [mEh/K]

  ==> Thermochemistry Energy Analysis <==

  Raw electronic energy, E0
  Total E0, Electronic energy at well bottom at 0 [K]                 -247.61806099 [Eh]

  Zero-point energy, ZPE_vib = Sum_i nu_i / 2
    Electronic ZPE          0.000 [kcal/mol]        0.000 [kJ/mol]       0.00000000 [Eh]
    Translational ZPE       0.000 [kcal/mol]        0.000 [kJ/mol]       0.00000000 [Eh]
    Rotational ZPE          0.000 [kcal/mol]        0.000 [kJ/mol]       0.00000000 [Eh]
    Vibrational ZPE        67.152 [kcal/mol]      280.965 [kJ/mol]       0.10701404 [Eh]       23486.863 [cm^-1]
  Correction ZPE           67.152 [kcal/mol]      280.965 [kJ/mol]       0.10701404 [Eh]       23486.863 [cm^-1]
  Total ZPE, Electronic energy at 0 [K]                               -247.51104695 [Eh]

  Thermal Energy, E (includes ZPE)
    Electronic E            0.000 [kcal/mol]        0.000 [kJ/mol]       0.00000000 [Eh]
    Translational E         0.889 [kcal/mol]        3.718 [kJ/mol]       0.00141628 [Eh]
    Rotational E            0.889 [kcal/mol]        3.718 [kJ/mol]       0.00141628 [Eh]
    Vibrational E          70.218 [kcal/mol]      293.793 [kJ/mol]       0.11189992 [Eh]
  Correction E             71.996 [kcal/mol]      301.230 [kJ/mol]       0.11473247 [Eh]
  Total E, Electronic energy at  298.15 [K]                           -247.50332851 [Eh]

  Enthalpy, H_trans = E_trans + k_B * T
    Electronic H            0.000 [kcal/mol]        0.000 [kJ/mol]       0.00000000 [Eh]
    Translational H         1.481 [kcal/mol]        6.197 [kJ/mol]       0.00236046 [Eh]
    Rotational H            0.889 [kcal/mol]        3.718 [kJ/mol]       0.00141628 [Eh]
    Vibrational H          70.218 [kcal/mol]      293.793 [kJ/mol]       0.11189992 [Eh]
  Correction H             72.588 [kcal/mol]      303.709 [kJ/mol]       0.11567666 [Eh]
  Total H, Enthalpy at  298.15 [K]                                    -247.50238433 [Eh]

  Gibbs free energy, G = H - T * S
    Electronic G           -0.411 [kcal/mol]       -1.718 [kJ/mol]      -0.00065446 [Eh]
    Translational G       -10.094 [kcal/mol]      -42.233 [kJ/mol]      -0.01608557 [Eh]
    Rotational G           -7.027 [kcal/mol]      -29.402 [kJ/mol]      -0.01119871 [Eh]
    Vibrational G          64.218 [kcal/mol]      268.690 [kJ/mol]       0.10233847 [Eh]
  Correction G             46.687 [kcal/mol]      195.336 [kJ/mol]       0.07439972 [Eh]
  Total G, Free enthalpy at  298.15 [K]                               -247.54366126 [Eh]

*** Psi4 exiting successfully. Buy a developer a beer!
