                               Psi4 1.2.1 release

  ==> Input File <==

--------------------------------------------------------------------------

molecule {
0 1
C -0.0629433443 -0.7572010666 0.0801593910

O -1.0888461738 -0.7865965296 -0.6641124020

H 0.7179356210 -0.7116726551 2.1110504297

H -1.0489257789 -0.4642333971 1.9505767764

H -0.3494029664 -2.0702085926 1.6926353763

H 0.9207750752 -1.0501608516 -0.3399096330

C -0.1816294332 -0.9978337405 1.5638103934
--
0 1
H 1.0283619976 2.4618767163 -1.1042903334

C 1.2073827499 1.4252054256 -0.8320118287

H 1.3251365420 0.8162068857 -1.7326963138

H 2.1048908840 1.3620664280 -0.2173464493

O 0.1138142324 0.9632942459 -0.0547013537

H -0.6883202983 0.7790264219 -0.6197681977
symmetry c1
no_reorient
no_com
}

set{
  basis 6-311++G(d,p)
  freeze_core True
}

set_num_threads(32)
energy('fisapt0')
--------------------------------------------------------------------------

    Molecular point group: c1

    Geometry (in Angstrom), charge = 0, multiplicity = 1:

       Center              X                  Y                   Z               Mass
    ------------   -----------------  -----------------  -----------------  -----------------
         C           -0.062943344300    -0.757201066600     0.080159391000    12.000000000000
         O           -1.088846173800    -0.786596529600    -0.664112402000    15.994914619560
         H            0.717935621000    -0.711672655100     2.111050429700     1.007825032070
         H           -1.048925778900    -0.464233397100     1.950576776400     1.007825032070
         H           -0.349402966400    -2.070208592600     1.692635376300     1.007825032070
         H            0.920775075200    -1.050160851600    -0.339909633000     1.007825032070
         C           -0.181629433200    -0.997833740500     1.563810393400    12.000000000000
         H            1.028361997600     2.461876716300    -1.104290333400     1.007825032070
         C            1.207382749900     1.425205425600    -0.832011828700    12.000000000000
         H            1.325136542000     0.816206885700    -1.732696313800     1.007825032070
         H            2.104890884000     1.362066428000    -0.217346449300     1.007825032070
         O            0.113814232400     0.963294245900    -0.054701353700    15.994914619560
         H           -0.688320298300     0.779026421900    -0.619768197700     1.007825032070

  Charge       = 0
  Multiplicity = 1
  Basis Set: 6-311++G(D,P)
    Blend: 6-311++G(D,P)
  Basis Set: (6-311++G(D,P) AUX)
    Blend: AUG-CC-PVTZ-JKFIT

    Orbital Energies [Eh]
    ---------------------

    Doubly Occupied:

       1A    -20.613483     2A    -20.480823     3A    -11.346431
       4A    -11.305029     5A    -11.223493     6A     -1.445500
       7A     -1.315532     8A     -1.008276     9A     -0.970081
      10A     -0.811213    11A     -0.747141    12A     -0.677114
      13A     -0.665454    14A     -0.623149    15A     -0.580273
      16A     -0.575062    17A     -0.541918    18A     -0.533379
      19A     -0.517445    20A     -0.414270    21A     -0.386330

  @DF-RHF Final Energy:  -267.97860668686673

   => Energetics <=

    Nuclear Repulsion Energy =            195.4921339506229572
    One-Electron Energy =                -753.3786887301417892
    Two-Electron Energy =                 289.9079480926521342
    Total Energy =                       -267.9786066868667262

  Dipole Moment: [D]
     X:     3.7034      Y:     2.0224      Z:     0.7060     Total:     4.2783

  Basis Set: (6-311++G(D,P) AUX)
    Blend: AUG-CC-PVTZ-JKFIT

    SAPT Results
  --------------------------------------------------------------------------------------------------------
    Electrostatics               -141.12547616 [mEh]     -88.55757698 [kcal/mol]    -370.52493766 [kJ/mol]
      Elst10,r                   -141.12547616 [mEh]     -88.55757698 [kcal/mol]    -370.52493766 [kJ/mol]

    Exchange                      270.32705158 [mEh]     169.63279297 [kcal/mol]     709.74367392 [kJ/mol]
      Exch10                      270.32705158 [mEh]     169.63279297 [kcal/mol]     709.74367392 [kJ/mol]
      Exch10(S^2)                 246.33446626 [mEh]     154.57721776 [kcal/mol]     646.75114116 [kJ/mol]

    Induction                     -90.23893843 [mEh]     -56.62579114 [kcal/mol]    -236.92233286 [kJ/mol]
      Ind20,r                    -207.79720851 [mEh]    -130.39472241 [kcal/mol]    -545.57157094 [kJ/mol]
      Exch-Ind20,r                146.53991325 [mEh]      91.95518769 [kcal/mol]     384.74054223 [kJ/mol]
      delta HF,r (2)              -28.98164317 [mEh]     -18.18625642 [kcal/mol]     -76.09130414 [kJ/mol]
      Induction (A<-B)            -31.34501251 [mEh]     -19.66929313 [kcal/mol]     -82.29633035 [kJ/mol]
      Induction (B<-A)            -58.89392592 [mEh]     -36.95649801 [kcal/mol]    -154.62600251 [kJ/mol]

    Dispersion                    -30.32997418 [mEh]     -19.03234693 [kcal/mol]     -79.63134721 [kJ/mol]
      Disp20                      -43.98303813 [mEh]     -27.59977427 [kcal/mol]    -115.47746661 [kJ/mol]
      Exch-Disp20                  13.65306395 [mEh]       8.56742733 [kcal/mol]      35.84611941 [kJ/mol]

  Total HF                         38.96263698 [mEh]      24.44942485 [kcal/mol]     102.29640340 [kJ/mol]
  Total SAPT0                       8.63266281 [mEh]       5.41707792 [kcal/mol]      22.66505620 [kJ/mol]

  --------------------------------------------------------------------------------------------------------

*** Psi4 exiting successfully. Buy a developer a beer!
