                               Psi4 1.2.1 release

  ==> Input File <==

--------------------------------------------------------------------------
molecule{
0 1
 C   -0.191037360183   -1.138391424433    0.066641131126
 O   -1.141654706899   -1.007273122828   -0.660259869229
 H    0.630522866133   -0.538777174062    1.941089940354
 H   -1.156959405200   -0.577653181741    1.888866146548
 H    1.302333037931    2.533922225257   -1.371891704266
 C    1.290758333413    1.543130220550   -0.908411660813
 H    1.238870631200    0.782252484959   -1.694965665881
 H    2.219956342449    1.410950239513   -0.354151700368
 O    0.232559615935    1.410609948737    0.021255059415
 H   -0.599372993737    1.372064858391   -0.456032556266
 C   -0.242590478866   -1.071283316508    1.563667151188
 H   -0.220778663868   -2.092507817782    1.957934582588
 H    0.807721036782   -1.355068341661   -0.364878396169
}

set{
   basis 6-311++G(d,p)
   freeze_core True
}

set_num_threads(32)
optimize('m06-2x')
--------------------------------------------------------------------------

    Molecular point group: c1
  Charge       = 0
  Multiplicity = 1
  Basis Set: 6-311++G(D,P)
    Blend: 6-311++G(D,P)
  Basis Set: (6-311++G(D,P) AUX)
    Blend: AUG-CC-PVTZ-JKFIT
  @DF-RKS Final Energy:  -269.51527294881407
    Total Energy =                       -269.5152729488140722
    Molecular point group: c1
  Basis Set: 6-311++G(D,P)
    Blend: 6-311++G(D,P)
  Basis Set: (6-311++G(D,P) AUX)
    Blend: AUG-CC-PVTZ-JKFIT
  Basis Set: 6-311++G(D,P)
    Blend: 6-311++G(D,P)
  Basis Set: (6-311++G(D,P) AUX)
    Blend: AUG-CC-PVTZ-JKFIT
  @DF-RKS Final Energy:  -269.51545384422803
    Total Energy =                       -269.5154538442280341
  Basis Set: 6-311++G(D,P)
    Blend: 6-311++G(D,P)
  Basis Set: (6-311++G(D,P) AUX)
    Blend: AUG-CC-PVTZ-JKFIT
  Basis Set: 6-311++G(D,P)
    Blend: 6-311++G(D,P)
  @DF-RKS Final Energy:  -269.51656099690939
    Total Energy =                       -269.5165609969093907
  @DF-RKS Final Energy:  -269.51704207274901
    Total Energy =                       -269.5170420727490068
  @DF-RKS Final Energy:  -269.51728393651024
    Total Energy =                       -269.5172839365102391
  @DF-RKS Final Energy:  -269.51732528379733
    Total Energy =                       -269.5173252837973337
  @DF-RKS Final Energy:  -269.51734979995092
    Total Energy =                       -269.5173497999509209
  @DF-RKS Final Energy:  -269.51736845094496
    Total Energy =                       -269.5173684509449572
  @DF-RKS Final Energy:  -269.51737678597942
    Total Energy =                       -269.5173767859794225
  @DF-RKS Final Energy:  -269.51738041514437
    Total Energy =                       -269.5173804151443733
  Basis Set: (6-311++G(D,P) AUX)
    Blend: AUG-CC-PVTZ-JKFIT
  Basis Set: 6-311++G(D,P)
    Blend: 6-311++G(D,P)
  Basis Set: (6-311++G(D,P) AUX)
    Blend: AUG-CC-PVTZ-JKFIT
  @DF-RKS Final Energy:  -269.51738238960519
    Total Energy =                       -269.5173823896051886
  Basis Set: 6-311++G(D,P)
    Blend: 6-311++G(D,P)
  Basis Set: (6-311++G(D,P) AUX)
    Blend: AUG-CC-PVTZ-JKFIT
  Charge       = 0
  Multiplicity = 1
  Basis Set: 6-311++G(D,P)
    Blend: 6-311++G(D,P)
  Basis Set: (6-311++G(D,P) AUX)
    Blend: AUG-CC-PVTZ-JKFIT

    Orbital Energies [Eh]
    ---------------------

    Doubly Occupied:

       1A    -19.627536     2A    -19.626414     3A    -10.636434
       4A    -10.579216     5A    -10.543065     6A     -1.181590
       7A     -1.148398     8A     -0.850299     9A     -0.779120
      10A     -0.668085    11A     -0.590439    12A     -0.563841
      13A     -0.531510    14A     -0.517993    15A     -0.508437
      16A     -0.500390    17A     -0.465107    18A     -0.435577
      19A     -0.413792    20A     -0.358203    21A     -0.334087

  @DF-RKS Final Energy:  -269.51738272870438

   => Energetics <=

    Nuclear Repulsion Energy =            178.8497266035152222
    One-Electron Energy =                -720.5888238267916677
    Two-Electron Energy =                 289.7355703076228792
    DFT Exchange-Correlation Energy =     -17.5138558130508493
    Empirical Dispersion Energy =           0.0000000000000000
    VV10 Nonlocal Energy =                  0.0000000000000000
    Total Energy =                       -269.5173827287043764

  Dipole Moment: [D]
     X:     1.0462      Y:    -0.3857      Z:     0.7294     Total:     1.3324

    Molecular point group: c1
  Basis Set: 6-311++G(D,P)
    Blend: 6-311++G(D,P)
  Basis Set: (6-311++G(D,P) AUX)
    Blend: AUG-CC-PVTZ-JKFIT

  -Total Gradient:
     Atom            X                  Y                   Z
    ------   -----------------  -----------------  -----------------
       1        0.000045509356     0.000033434311    -0.000005761583
       2        0.000013582020     0.000018208420    -0.000021925608
       3       -0.000038145154     0.000003848130    -0.000010681339
       4       -0.000001247367     0.000000517873    -0.000016785299
       5       -0.000000532599     0.000005254806     0.000018898150
       6        0.000040463573    -0.000018027919    -0.000040639317
       7        0.000007529907     0.000036745434     0.000019353964
       8       -0.000024101513     0.000024120567     0.000017407531
       9       -0.000047400695    -0.000047330259     0.000023742196
      10       -0.000003692339     0.000046460515     0.000010053185
      11        0.000040667334     0.000012749656    -0.000008532855
      12       -0.000016906355     0.000024549154    -0.000010730232
      13       -0.000012711322    -0.000009138611    -0.000008623745

  **** Optimization is complete! (in 12 steps) ****
    Final optimized geometry and variables:
    Molecular point group: c1

    Geometry (in Angstrom), charge = 0, multiplicity = 1:

    C           -0.233353473910    -1.183674784216     0.105710001475
    O           -1.048467305684    -0.918669169640    -0.739587882905
    H            0.093427510055    -0.460494443849     2.060614843167
    H           -1.574417860831    -1.044734673803     1.767060246629
    H            1.053595306496     2.477980776391    -1.591681658725
    C            1.214812693482     1.537120649801    -1.057192039484
    H            0.919798143911     0.704157909405    -1.703606573878
    H            2.275215847661     1.450322859726    -0.823342144762
    O            0.515751359939     1.508584572923     0.176706434722
    H           -0.425847892879     1.517003492725    -0.016414945090
    C           -0.517805083271    -1.226950097951     1.576450364207
    H           -0.220037796605    -2.196527640677     1.983557547172
    H            0.812205014183    -1.409428571824    -0.184241051608

*** Psi4 exiting successfully. Buy a developer a beer!
