                               Psi4 1.2.1 release

  ==> Input File <==

--------------------------------------------------------------------------

molecule {
0 1
 C   -0.062943344263   -0.757201066570    0.080159391020
 O   -1.088846173766   -0.786596529622   -0.664112401993
 H    0.717935620998   -0.711672655056    2.111050429661
 H   -1.048925778883   -0.464233397132    1.950576776441
 H    1.028361997561    2.461876716270   -1.104290333368
 C    1.207382749899    1.425205425619   -0.832011828673
 H    1.325136541950    0.816206885746   -1.732696313838
 H    2.104890884013    1.362066427963   -0.217346449336
 O    0.113814232385    0.963294245949   -0.054701353691
 H   -0.688320298330    0.779026421926   -0.619768197684
 C   -0.181629433193   -0.997833740523    1.563810393433
 H   -0.349402966350   -2.070208592594    1.692635376275
 H    0.920775075172   -1.050160851560   -0.339909632995

}

set{
  basis 6-311++G(d,p)
  freeze_core True
  cubeprop_tasks ['ESP']
}

set_num_threads(32)
E, wfn = energy('m06-2x', return_wfn=True)
cubeprop(wfn)
--------------------------------------------------------------------------

    Molecular point group: c1

    Geometry (in Angstrom), charge = 0, multiplicity = 1:

       Center              X                  Y                   Z               Mass
    ------------   -----------------  -----------------  -----------------  -----------------
         C           -0.062943344263    -0.757201066570     0.080159391020    12.000000000000
         O           -1.088846173766    -0.786596529622    -0.664112401993    15.994914619560
         H            0.717935620998    -0.711672655056     2.111050429661     1.007825032070
         H           -1.048925778883    -0.464233397132     1.950576776441     1.007825032070
         H            1.028361997561     2.461876716270    -1.104290333368     1.007825032070
         C            1.207382749899     1.425205425619    -0.832011828673    12.000000000000
         H            1.325136541950     0.816206885746    -1.732696313838     1.007825032070
         H            2.104890884013     1.362066427963    -0.217346449336     1.007825032070
         O            0.113814232385     0.963294245949    -0.054701353691    15.994914619560
         H           -0.688320298330     0.779026421926    -0.619768197684     1.007825032070
         C           -0.181629433193    -0.997833740523     1.563810393433    12.000000000000
         H           -0.349402966350    -2.070208592594     1.692635376275     1.007825032070
         H            0.920775075172    -1.050160851560    -0.339909632995     1.007825032070

  Charge       = 0
  Multiplicity = 1
  Basis Set: 6-311++G(D,P)
    Blend: 6-311++G(D,P)
  Basis Set: (6-311++G(D,P) AUX)
    Blend: AUG-CC-PVTZ-JKFIT

    Orbital Energies [Eh]
    ---------------------

    Doubly Occupied:

       1A    -19.684094     2A    -19.559370     3A    -10.640398
       4A    -10.611998     5A    -10.529618     6A     -1.226570
       7A     -1.103843     8A     -0.840419     9A     -0.820076
      10A     -0.679222    11A     -0.638025    12A     -0.576716
      13A     -0.562365    14A     -0.521784    15A     -0.487091
      16A     -0.479502    17A     -0.448993    18A     -0.441689
      19A     -0.432760    20A     -0.335293    21A     -0.300949

  @DF-RKS Final Energy:  -269.46975017437364

   => Energetics <=

    Nuclear Repulsion Energy =            195.4921339502805324
    One-Electron Energy =                -753.6285072119495680
    Two-Electron Energy =                 306.2083937851006681
    DFT Exchange-Correlation Energy =     -17.5417706978052337
    Empirical Dispersion Energy =           0.0000000000000000
    VV10 Nonlocal Energy =                  0.0000000000000000
    Total Energy =                       -269.4697501743736439

  Dipole Moment: [D]
     X:     3.3910      Y:     2.1108      Z:     0.5436     Total:     4.0311

  Basis Set: 6-311++G(D,P)
    Blend: 6-311++G(D,P)
*** Psi4 exiting successfully. Buy a developer a beer!
