                               Psi4 1.2.1 release

  ==> Input File <==

--------------------------------------------------------------------------
molecule{
0 1
C        0.2464365831     -0.3265574870      0.0788370087
O       -1.1274241958     -0.2127079123     -0.0353484447
O        1.0051235028      0.6124623395     -0.0490768669
H        0.5678516019     -1.3587599931      0.2972226055
H       -1.6827707814     -0.0358126186     -0.7297503032
}

set{
   basis 3-21G
   freeze_core True
   opt_type ts
}

set_num_threads(1)
optimize('b3lyp')
--------------------------------------------------------------------------

    Molecular point group: c1
  Charge       = 0
  Multiplicity = 1
  Basis Set: 3-21G
    Blend: 3-21G
  Basis Set: (3-21G AUX)
    Blend: DEF2-SVP-JKFIT
  @DF-RKS Final Energy:  -188.66508374566055
    Total Energy =                       -188.6650837456605529
    Molecular point group: c1
  Basis Set: 3-21G
    Blend: 3-21G
  Basis Set: (3-21G AUX)
    Blend: DEF2-SVP-JKFIT
  Basis Set: 3-21G
    Blend: 3-21G
  Basis Set: (3-21G AUX)
    Blend: DEF2-SVP-JKFIT
  @DF-RKS Final Energy:  -188.66566216552206
    Total Energy =                       -188.6656621655220647
  Basis Set: 3-21G
    Blend: 3-21G
  Basis Set: (3-21G AUX)
    Blend: DEF2-SVP-JKFIT
  Basis Set: 3-21G
    Blend: 3-21G
  @DF-RKS Final Energy:  -188.67243222185536
    Total Energy =                       -188.6724322218553596
  @DF-RKS Final Energy:  -188.67369969551970
    Total Energy =                       -188.6736996955197014
  @DF-RKS Final Energy:  -188.67440338320736
    Total Energy =                       -188.6744033832073626
  @DF-RKS Final Energy:  -188.67461421649699
    Total Energy =                       -188.6746142164969910
  Basis Set: (3-21G AUX)
    Blend: DEF2-SVP-JKFIT
  Basis Set: 3-21G
    Blend: 3-21G
  Basis Set: (3-21G AUX)
    Blend: DEF2-SVP-JKFIT
  @DF-RKS Final Energy:  -188.67465452075083
    Total Energy =                       -188.6746545207508063
  Basis Set: 3-21G
    Blend: 3-21G
  Basis Set: (3-21G AUX)
    Blend: DEF2-SVP-JKFIT
  Charge       = 0
  Multiplicity = 1
  Basis Set: 3-21G
    Blend: 3-21G
  Basis Set: (3-21G AUX)
    Blend: DEF2-SVP-JKFIT

    Orbital Energies [Eh]
    ---------------------

    Doubly Occupied:

       1A    -19.066568     2A    -19.056945     3A    -10.269459
       4A     -1.099990     5A     -1.026677     6A     -0.638097
       7A     -0.547346     8A     -0.456297     9A     -0.435920
      10A     -0.352378    11A     -0.305570    12A     -0.280795

  @DF-RKS Final Energy:  -188.67465402693628

   => Energetics <=

    Nuclear Repulsion Energy =             68.2850938312451206
    One-Electron Energy =                -393.3525093779841768
    Two-Electron Energy =                 155.1826687969383727
    DFT Exchange-Correlation Energy =     -18.7899072771355762
    Empirical Dispersion Energy =           0.0000000000000000
    VV10 Nonlocal Energy =                  0.0000000000000000
    Total Energy =                       -188.6746540269362811

  Dipole Moment: [D]
     X:    -1.3087      Y:    -2.0241      Z:    -1.5897     Total:     2.8873

    Molecular point group: c1
  Basis Set: 3-21G
    Blend: 3-21G
  Basis Set: (3-21G AUX)
    Blend: DEF2-SVP-JKFIT

  -Total Gradient:
     Atom            X                  Y                   Z
    ------   -----------------  -----------------  -----------------
       1       -0.000329641521    -0.000012060732     0.000178318073
       2        0.000157677287     0.000014601049     0.000029078036
       3        0.000167279436     0.000040403499    -0.000048315210
       4        0.000050552551    -0.000010269734    -0.000078740039
       5       -0.000033658286    -0.000045252847    -0.000089044761

  **** Optimization is complete! (in 8 steps) ****
    Final optimized geometry and variables:
    Molecular point group: c1

    Geometry (in Angstrom), charge = 0, multiplicity = 1:

    C            0.230223016669    -0.361073813614     0.034916906978
    O           -1.152258456006    -0.154071239465     0.075175394608
    O            1.048229023912     0.530856179754    -0.061057027549
    H            0.493185194724    -1.419201899633     0.174977883284
    H           -1.583388633620    -0.261404487986    -0.814796243518

*** Psi4 exiting successfully. Buy a developer a beer!
