                               Psi4 1.2.1 release

  ==> Input File <==

--------------------------------------------------------------------------
molecule{
0 1
 C   -0.096702550851   -0.564746944292   -0.837670917229
 O   -1.113975479868   -0.642690286614   -1.456988515459
 F    1.044544036893   -0.028792226470    1.199284055263
 F   -1.111870774580    0.067866701877    1.242960287961
 H    1.291124819205    3.033818009938   -1.958542648154
 C    1.295461311322    1.985483965440   -1.653505250016
 H    1.344942777455    1.350532369111   -2.544850883011
 H    2.173050713097    1.803469426262   -1.034629052068
 O    0.165737875511    1.676545067036   -0.854119608514
 H   -0.643228830141    1.833372853070   -1.352913610879
 C   -0.077692668352   -0.554539961559    0.700715089736
 F   -0.111724725431   -1.846861667232    1.067830247746
 H    0.910267736886   -0.664472870127   -1.279432782561
}

set{
   basis 6-311++G(d,p)
   freeze_core True
}

set_num_threads(32)
optimize('m06-2x')
--------------------------------------------------------------------------

    Molecular point group: c1
  Charge       = 0
  Multiplicity = 1
  Basis Set: 6-311++G(D,P)
    Blend: 6-311++G(D,P)
  Basis Set: (6-311++G(D,P) AUX)
    Blend: AUG-CC-PVTZ-JKFIT
  @DF-RKS Final Energy:  -567.24513240960152
    Total Energy =                       -567.2451324096015242
    Molecular point group: c1
  Basis Set: 6-311++G(D,P)
    Blend: 6-311++G(D,P)
  Basis Set: (6-311++G(D,P) AUX)
    Blend: AUG-CC-PVTZ-JKFIT
  Basis Set: 6-311++G(D,P)
    Blend: 6-311++G(D,P)
  Basis Set: (6-311++G(D,P) AUX)
    Blend: AUG-CC-PVTZ-JKFIT
  @DF-RKS Final Energy:  -567.24741699176968
    Total Energy =                       -567.2474169917696827
  Basis Set: 6-311++G(D,P)
    Blend: 6-311++G(D,P)
  Basis Set: (6-311++G(D,P) AUX)
    Blend: AUG-CC-PVTZ-JKFIT
  Basis Set: 6-311++G(D,P)
    Blend: 6-311++G(D,P)
  @DF-RKS Final Energy:  -567.24870576586488
    Total Energy =                       -567.2487057658648837
  @DF-RKS Final Energy:  -567.24896712385816
    Total Energy =                       -567.2489671238581650
  @DF-RKS Final Energy:  -567.24911433887382
    Total Energy =                       -567.2491143388738237
  @DF-RKS Final Energy:  -567.24921265933892
    Total Energy =                       -567.2492126593389230
  @DF-RKS Final Energy:  -567.24929696274955
    Total Energy =                       -567.2492969627495540
  @DF-RKS Final Energy:  -567.24940146355743
    Total Energy =                       -567.2494014635574331
  @DF-RKS Final Energy:  -567.24954556541593
    Total Energy =                       -567.2495455654159286
  @DF-RKS Final Energy:  -567.24960752041306
    Total Energy =                       -567.2496075204130648
  @DF-RKS Final Energy:  -567.24970754720198
    Total Energy =                       -567.2497075472019787
  @DF-RKS Final Energy:  -567.24975824601972
    Total Energy =                       -567.2497582460197236
  @DF-RKS Final Energy:  -567.24979596541846
    Total Energy =                       -567.2497959654184569
  @DF-RKS Final Energy:  -567.24983496032314
    Total Energy =                       -567.2498349603231418
  @DF-RKS Final Energy:  -567.24987814973338
    Total Energy =                       -567.2498781497333766
  @DF-RKS Final Energy:  -567.24998930558195
    Total Energy =                       -567.2499893055819484
  @DF-RKS Final Energy:  -567.25008825490397
    Total Energy =                       -567.2500882549039716
  @DF-RKS Final Energy:  -567.25018490446655
    Total Energy =                       -567.2501849044665505
  @DF-RKS Final Energy:  -567.25035990666197
    Total Energy =                       -567.2503599066619699
  @DF-RKS Final Energy:  -567.25046972080918
    Total Energy =                       -567.2504697208091784
  @DF-RKS Final Energy:  -567.25062883577868
    Total Energy =                       -567.2506288357786843
  @DF-RKS Final Energy:  -567.25084318867289
    Total Energy =                       -567.2508431886728886
  @DF-RKS Final Energy:  -567.25100932019836
    Total Energy =                       -567.2510093201983636
  @DF-RKS Final Energy:  -567.25113280927417
    Total Energy =                       -567.2511328092741678
  @DF-RKS Final Energy:  -567.25127339761821
    Total Energy =                       -567.2512733976182062
  @DF-RKS Final Energy:  -567.25141584739322
    Total Energy =                       -567.2514158473932184
  @DF-RKS Final Energy:  -567.25151226111961
    Total Energy =                       -567.2515122611196148
  @DF-RKS Final Energy:  -567.25165394966382
    Total Energy =                       -567.2516539496638188
  @DF-RKS Final Energy:  -567.25163937578316
    Total Energy =                       -567.2516393757831565
  @DF-RKS Final Energy:  -567.25181112712573
    Total Energy =                       -567.2518111271257339
  @DF-RKS Final Energy:  -567.25168078332240
    Total Energy =                       -567.2516807833223993
  @DF-RKS Final Energy:  -567.25173190087605
    Total Energy =                       -567.2517319008760524
  @DF-RKS Final Energy:  -567.25183829948446
    Total Energy =                       -567.2518382994844615
  Basis Set: (6-311++G(D,P) AUX)
    Blend: AUG-CC-PVTZ-JKFIT
  Basis Set: 6-311++G(D,P)
    Blend: 6-311++G(D,P)
  Basis Set: (6-311++G(D,P) AUX)
    Blend: AUG-CC-PVTZ-JKFIT
  @DF-RKS Final Energy:  -567.25184485117165
    Total Energy =                       -567.2518448511716542
  Basis Set: 6-311++G(D,P)
    Blend: 6-311++G(D,P)
  Basis Set: (6-311++G(D,P) AUX)
    Blend: AUG-CC-PVTZ-JKFIT
  Charge       = 0
  Multiplicity = 1
  Basis Set: 6-311++G(D,P)
    Blend: 6-311++G(D,P)
  Basis Set: (6-311++G(D,P) AUX)
    Blend: AUG-CC-PVTZ-JKFIT

    Orbital Energies [Eh]
    ---------------------

    Doubly Occupied:

       1A    -25.292195     2A    -25.291507     3A    -25.290090
       4A    -19.663555     5A    -19.647226     6A    -10.810639
       7A    -10.670236     8A    -10.592488     9A     -1.486191
      10A     -1.393400    11A     -1.390047    12A     -1.220319
      13A     -1.167329    14A     -0.867438    15A     -0.794978
      16A     -0.764248    17A     -0.712420    18A     -0.709238
      19A     -0.657056    20A     -0.608908    21A     -0.590955
      22A     -0.589341    23A     -0.570742    24A     -0.558947
      25A     -0.542955    26A     -0.530287    27A     -0.527427
      28A     -0.524211    29A     -0.520714    30A     -0.488927
      31A     -0.429696    32A     -0.377678    33A     -0.368710

  @DF-RKS Final Energy:  -567.25184437947325

   => Energetics <=

    Nuclear Repulsion Energy =            430.1245134271312622
    One-Electron Energy =               -1637.0014884427396282
    Two-Electron Energy =                 671.6361367618941358
    DFT Exchange-Correlation Energy =     -32.0110061257589322
    Empirical Dispersion Energy =           0.0000000000000000
    VV10 Nonlocal Energy =                  0.0000000000000000
    Total Energy =                       -567.2518443794732548

  Dipole Moment: [D]
     X:     1.5134      Y:     1.4554      Z:    -1.4636     Total:     2.5594

    Molecular point group: c1
  Basis Set: 6-311++G(D,P)
    Blend: 6-311++G(D,P)
  Basis Set: (6-311++G(D,P) AUX)
    Blend: AUG-CC-PVTZ-JKFIT

  -Total Gradient:
     Atom            X                  Y                   Z
    ------   -----------------  -----------------  -----------------
       1       -0.000052309764     0.000007159497    -0.000028906640
       2       -0.000038883385    -0.000005232012    -0.000003700125
       3       -0.000098157927    -0.000002669662     0.000030763152
       4       -0.000077940717     0.000094531254     0.000013973446
       5       -0.000017984317     0.000005225678    -0.000010435790
       6       -0.000011966417     0.000002348594    -0.000000938916
       7       -0.000001970462    -0.000026304431    -0.000021612317
       8        0.000012060312    -0.000038784130    -0.000001368872
       9        0.000030085272    -0.000062872264    -0.000004252486
      10       -0.000050287092     0.000007075259    -0.000032241050
      11        0.000100378224    -0.000072393480    -0.000045977990
      12       -0.000051037056     0.000030151311    -0.000000632053
      13       -0.000023368569    -0.000011113013     0.000017359010

  **** Optimization is complete! (in 35 steps) ****
    Final optimized geometry and variables:
    Molecular point group: c1

    Geometry (in Angstrom), charge = 0, multiplicity = 1:

    C           -0.610106738862    -1.042092911717    -0.557403420838
    O           -1.781964702963    -0.961598792239    -0.754228913697
    F            1.334182562316    -0.220929483840     0.536309550085
    F           -0.543162053692     0.737751958640     1.030112519816
    H            0.946969733127     2.554809840237    -0.515806082350
    C            1.218741832197     2.023229857251    -1.431994436919
    H            1.319499797758     2.734531404921    -2.255640799283
    H            2.174099816406     1.525880034451    -1.277149104162
    O            0.272789714836     1.007717447377    -1.741226297305
    H           -0.580301588947     1.412264477749    -1.922232354730
    C            0.023053779194    -0.417159425120     0.700107869040
    F           -0.129287683665    -1.263345781640     1.728752397827
    H            0.095767712818    -1.601973996190    -1.190117359554

*** Psi4 exiting successfully. Buy a developer a beer!
