                               Psi4 1.2.1 release

  ==> Input File <==

--------------------------------------------------------------------------
molecule{
0 1
    C            0.129784220059    -0.143510255477     0.036169310292
    O           -1.154576783693    -0.249347483617    -0.030169152237
    O            1.080794459278     0.552841892869    -0.032650887544
    H            0.341375655214    -1.653518907106     0.337786902363
    H           -0.715715098318    -1.454405581870     0.228550935085
}

set{
   basis 3-21G
   freeze_core True
   reference uhf
   full_hess_every 0
   normal_modes_write True
}

set_num_threads(1)
frequencies('b3lyp')
--------------------------------------------------------------------------

    Molecular point group: c1
  Charge       = 0
  Multiplicity = 1
  Basis Set: 3-21G
    Blend: 3-21G
  Basis Set: (3-21G AUX)
    Blend: DEF2-SVP-JKFIT
  @DF-UKS Final Energy:  -188.57204826210494
    Total Energy =                       -188.5720482621048859
    Molecular point group: c1
  Basis Set: 3-21G
    Blend: 3-21G
  Basis Set: (3-21G AUX)
    Blend: DEF2-SVP-JKFIT
  Basis Set: 3-21G
    Blend: 3-21G
  Basis Set: (3-21G AUX)
    Blend: DEF2-SVP-JKFIT
  @DF-UKS Final Energy:  -188.57204669808996
    Total Energy =                       -188.5720466980899914
  Basis Set: 3-21G
    Blend: 3-21G
  Basis Set: (3-21G AUX)
    Blend: DEF2-SVP-JKFIT
  Basis Set: 3-21G
    Blend: 3-21G
  @DF-UKS Final Energy:  -188.57204705756840
    Total Energy =                       -188.5720470575683692
  @DF-UKS Final Energy:  -188.57204767879816
    Total Energy =                       -188.5720476787981568
  @DF-UKS Final Energy:  -188.57204787986603
    Total Energy =                       -188.5720478798660054
  @DF-UKS Final Energy:  -188.57204813224899
    Total Energy =                       -188.5720481322489661
  @DF-UKS Final Energy:  -188.57204802427481
    Total Energy =                       -188.5720480242747783
  @DF-UKS Final Energy:  -188.57204783522883
    Total Energy =                       -188.5720478352288865
  @DF-UKS Final Energy:  -188.57204759185157
    Total Energy =                       -188.5720475918515717
  @DF-UKS Final Energy:  -188.57204836763302
    Total Energy =                       -188.5720483676330161
  @DF-UKS Final Energy:  -188.57204858755753
    Total Energy =                       -188.5720485875574752
  @DF-UKS Final Energy:  -188.57204777902348
    Total Energy =                       -188.5720477790235066
  @DF-UKS Final Energy:  -188.57204770150958
    Total Energy =                       -188.5720477015095753
  @DF-UKS Final Energy:  -188.57204748275865
    Total Energy =                       -188.5720474827586770
  @DF-UKS Final Energy:  -188.57204759132782
    Total Energy =                       -188.5720475913278733
  @DF-UKS Final Energy:  -188.57204742986346
    Total Energy =                       -188.5720474298634599
  @DF-UKS Final Energy:  -188.57204774000542
    Total Energy =                       -188.5720477400054165
  @DF-UKS Final Energy:  -188.57204833845020
    Total Energy =                       -188.5720483384502302
  Basis Set: (3-21G AUX)
    Blend: DEF2-SVP-JKFIT
  Basis Set: 3-21G
    Blend: 3-21G
  Basis Set: (3-21G AUX)
    Blend: DEF2-SVP-JKFIT
  @DF-UKS Final Energy:  -188.57204870901830
    Total Energy =                       -188.5720487090183326
  Basis Set: 3-21G
    Blend: 3-21G
  Basis Set: (3-21G AUX)
    Blend: DEF2-SVP-JKFIT
    Molecular point group: c1
  Charge       = 0
  Multiplicity = 1
  Basis Set: 3-21G
    Blend: 3-21G
  Basis Set: (3-21G AUX)
    Blend: DEF2-SVP-JKFIT

    Orbital Energies [Eh]
    ---------------------

    Alpha Occupied:

       1A    -19.130573     2A    -19.106995     3A    -10.344810
       4A     -1.167640     5A     -1.104935     6A     -0.600694
       7A     -0.554690     8A     -0.500320     9A     -0.496647
      10A     -0.399784    11A     -0.347424    12A     -0.295736

    Alpha Virtual:

      13A     -0.065903    14A     -0.013016    15A      0.100953
      16A      0.189868    17A      0.443468    18A      0.627035
      19A      0.693788    20A      0.711868    21A      0.865689
      22A      0.940956    23A      1.154607    24A      1.375818
      25A      1.465283    26A      1.498771    27A      1.548209
      28A      1.580780    29A      1.666601    30A      2.982960
      31A      3.238930

    Beta Occupied:

       1A    -19.130573     2A    -19.106995     3A    -10.344810
       4A     -1.167640     5A     -1.104935     6A     -0.600694
       7A     -0.554690     8A     -0.500320     9A     -0.496647
      10A     -0.399784    11A     -0.347424    12A     -0.295736

    Beta Virtual:

      13A     -0.065903    14A     -0.013016    15A      0.100953
      16A      0.189868    17A      0.443468    18A      0.627035
      19A      0.693788    20A      0.711868    21A      0.865689
      22A      0.940956    23A      1.154607    24A      1.375818
      25A      1.465283    26A      1.498771    27A      1.548209
      28A      1.580780    29A      1.666601    30A      2.982960
      31A      3.238930

    Final Occupation by Irrep:
              A
    DOCC [    12 ]
    SOCC [     0 ]

  Energy converged.

  @DF-UKS Final Energy:  -188.57204826210386

   => Energetics <=

    Nuclear Repulsion Energy =             68.6370040572177089
    One-Electron Energy =                -392.8902550051099070
    Two-Electron Energy =                 154.3751815414890132
    DFT Exchange-Correlation Energy =     -18.6939788557006779
    Empirical Dispersion Energy =           0.0000000000000000
    VV10 Nonlocal Energy =                  0.0000000000000000
    Total Energy =                       -188.5720482621038627

  UHF NO Occupations:
  HONO-2 :   10  A 2.0000000
  HONO-1 :   11  A 2.0000000
  HONO-0 :   12  A 2.0000000
  LUNO+0 :   13  A 0.0000000
  LUNO+1 :   14  A 0.0000000
  LUNO+2 :   15  A 0.0000000
  LUNO+3 :   16  A 0.0000000

Properties will be evaluated at   0.000000,   0.000000,   0.000000 [a0]

Properties computed using the SCF density matrix

  Nuclear Dipole Moment: [e a0]
     X:    -0.3513      Y:    -2.9121      Z:     0.5306

  Electronic Dipole Moment: [e a0]
     X:     0.2600      Y:     2.4802      Z:    -0.4546

  Dipole Moment: [e a0]
     X:    -0.0913      Y:    -0.4319      Z:     0.0761     Total:     0.4479

  Dipole Moment: [D]
     X:    -0.2321      Y:    -1.0977      Z:     0.1933     Total:     1.1385

*** tstop() called on DESKTOP-QL22TIG at Fri Mar 22 09:41:53 2019
Module time:
	user time   =       3.07 seconds =       0.05 minutes
	system time =       0.25 seconds =       0.00 minutes
	total time  =          3 seconds =       0.05 minutes
Total time:
	user time   =      73.83 seconds =       1.23 minutes
	system time =       4.60 seconds =       0.08 minutes
	total time  =         81 seconds =       1.35 minutes

*** tstart() called on DESKTOP-QL22TIG
*** at Fri Mar 22 09:41:53 2019

         ------------------------------------------------------------
                                   SCF GRAD
                          Rob Parrish, Justin Turney,
                       Andy Simmonett, and Alex Sokolov
         ------------------------------------------------------------

  ==> Geometry <==

    Molecular point group: c1
    Full point group: C1

    Geometry (in Angstrom), charge = 0, multiplicity = 1:

       Center              X                  Y                   Z               Mass
    ------------   -----------------  -----------------  -----------------  -----------------
         C            0.129784220059    -0.143510255477     0.036169310292    12.000000000000
         O           -1.154576783693    -0.249347483617    -0.030169152237    15.994914619560
         O            1.080794459278     0.552841892869    -0.032650887544    15.994914619560
         H            0.341375655214    -1.653518907106     0.337786902363     1.007825032070
         H           -0.715715098318    -1.454405581870     0.228550935085     1.007825032070

  Nuclear repulsion =   68.637004057217709

  ==> Basis Set <==

  Basis Set: 3-21G
    Blend: 3-21G
    Number of shells: 19
    Number of basis function: 31
    Number of Cartesian functions: 31
    Spherical Harmonics?: false
    Max angular momentum: 1

  ==> DFJKGrad: Density-Fitted SCF Gradients <==

    Gradient:                    1
    J tasked:                  Yes
    K tasked:                  Yes
    wK tasked:                  No
    OpenMP threads:              1
    Integrals threads:           1
    Memory (MB):               375
    Schwarz Cutoff:          0E+00
    Fitting Condition:       1E-12

   => Auxiliary Basis Set <=

  Basis Set: (3-21G AUX)
    Blend: DEF2-SVP-JKFIT
    Number of shells: 87
    Number of basis function: 315
    Number of Cartesian functions: 315
    Spherical Harmonics?: false
    Max angular momentum: 4

  ==> DFT Potential <==

   => Composite Functional: B3LYP <=

    B3LYP Hyb-GGA Exchange-Correlation Functional

    P. J. Stephens, F. J. Devlin, C. F. Chabalowski, and M. J. Frisch, J. Phys. Chem. 98, 11623 (1994)

    Deriv               =              1
    GGA                 =           TRUE
    Meta                =          FALSE

    Exchange Hybrid     =           TRUE
    MP2 Hybrid          =          FALSE

   => Exchange Functionals <=

    0.0800   Slater exchange
    0.7200         Becke 88

   => Exact (HF) Exchange <=

    0.2000               HF

   => Correlation Functionals <=

    0.1900   Vosko, Wilk & Nusair (VWN5_RPA)
    0.8100   Lee, Yang & Parr

   => Molecular Quadrature <=

    Radial Scheme       =       TREUTLER
    Pruning Scheme      =           FLAT
    Nuclear Scheme      =       TREUTLER

    BS radius alpha     =              1
    Pruning alpha       =              1
    Radial Points       =             75
    Spherical Points    =            302
    Total Points        =         107712
    Total Blocks        =            871
    Max Points          =            256
    Max Functions       =             30

  -Total Gradient:
     Atom            X                  Y                   Z
    ------   -----------------  -----------------  -----------------
       1       -0.000132162484    -0.000034862108     0.000024239977
       2        0.000122312443     0.000013931148     0.000000209221
       3        0.000019152962    -0.000000173993    -0.000012711560
       4       -0.000027103488     0.000040261709    -0.000009156265
       5        0.000020981176     0.000011457282    -0.000008137839

*** tstop() called on DESKTOP-QL22TIG at Fri Mar 22 09:41:54 2019
Module time:
	user time   =       0.45 seconds =       0.01 minutes
	system time =       0.04 seconds =       0.00 minutes
	total time  =          1 seconds =       0.02 minutes
Total time:
	user time   =      74.28 seconds =       1.24 minutes
	system time =       4.64 seconds =       0.08 minutes
	total time  =         82 seconds =       1.37 minutes

-------------------------------------------------------------

  Computing second-derivative from gradients using projected,
  symmetry-adapted, cartesian coordinates (fd_freq_1).

  19 gradients passed in, including the reference geometry.
  Generating complete list of displacements from unique ones.

-------------------------------------------------------------

  ==> Harmonic Vibrational Analysis <==

  non-mass-weighted Hessian:       Symmetric? True   Hermitian? True   Lin Dep Dim?  6 (0)
  projection of translations (True) and rotations (True) removed 6 degrees of freedom (6)
  total projector:                 Symmetric? True   Hermitian? True   Lin Dep Dim?  6 (6)
  mass-weighted Hessian:           Symmetric? True   Hermitian? True   Lin Dep Dim?  6 (0)
  pre-proj  low-frequency mode:    0.0000i [cm^-1]
  pre-proj  low-frequency mode:    0.0000i [cm^-1]
  pre-proj  low-frequency mode:    0.0000i [cm^-1]
  pre-proj  low-frequency mode:    0.0000i [cm^-1]
  pre-proj  low-frequency mode:    0.0000  [cm^-1]
  pre-proj  low-frequency mode:    0.0000  [cm^-1]
  pre-proj  low-frequency mode:    0.0000  [cm^-1]
  pre-proj  all modes:['2393.3137i' '0.0000i' '0.0000i' '0.0000i' '0.0000' '0.0000' '0.0000'
 '538.1832' '685.4476' '779.4751' '1104.2361' '1209.5057' '1554.9422'
 '1846.4619' '2100.3591']
  projected mass-weighted Hessian: Symmetric? True   Hermitian? True   Lin Dep Dim?  6 (6)
  post-proj low-frequency mode: 2393.3137i [cm^-1] (V)
  post-proj low-frequency mode:    0.0000i [cm^-1] (TR)
  post-proj low-frequency mode:    0.0000i [cm^-1] (TR)
  post-proj low-frequency mode:    0.0000i [cm^-1] (TR)
  post-proj low-frequency mode:    0.0000  [cm^-1] (TR)
  post-proj low-frequency mode:    0.0000  [cm^-1] (TR)
  post-proj low-frequency mode:    0.0000  [cm^-1] (TR)
  post-proj  all modes:['2393.3137i' '0.0000i' '0.0000i' '0.0000i' '0.0000' '0.0000' '0.0000'
 '538.1832' '685.4476' '779.4751' '1104.2361' '1209.5057' '1554.9422'
 '1846.4619' '2100.3591']

  Vibration                       1                   8                   9
  Freq [cm^-1]                2393.3137i           538.1832            685.4476
  Irrep                           A                   A                   A
  Reduced mass [u]              1.1421              3.0240              9.5157
  Force const [mDyne/A]        -3.8543              0.5161              2.6341
  Turning point v=0 [a0]        0.0000              0.2720              0.1359
  RMS dev v=0 [a0 u^1/2]        0.0000              0.3345              0.2964
  Char temp [K]                 0.0000             774.3246            986.2050
  ----------------------------------------------------------------------------------
      1   C               -0.07  0.07 -0.02   -0.03  0.07  0.38   -0.15  0.53 -0.11
      2   O                0.02  0.03 -0.00    0.00 -0.01 -0.07   -0.28 -0.31  0.04
      3   O                0.00 -0.02  0.00    0.01 -0.03 -0.14    0.38 -0.13  0.05
      4   H               -0.24 -0.37  0.05    0.01 -0.04 -0.21    0.31  0.39 -0.05
      5   H                0.70 -0.53  0.15    0.06 -0.16 -0.87   -0.03  0.30 -0.06

  Vibration                       10                  11                  12
  Freq [cm^-1]                 779.4751           1104.2361           1209.5057
  Irrep                           A                   A                   A
  Reduced mass [u]              1.1522              1.1279              7.4088
  Force const [mDyne/A]         0.4125              0.8103              6.3858
  Turning point v=0 [a0]        0.3661              0.3109              0.1159
  RMS dev v=0 [a0 u^1/2]        0.2779              0.2335              0.2231
  Char temp [K]               1121.4894           1588.7475           1740.2068
  ----------------------------------------------------------------------------------
      1   C               -0.02 -0.06  0.01   -0.01  0.02  0.08   -0.27  0.28 -0.07
      2   O               -0.04  0.05 -0.01    0.00 -0.01 -0.05    0.44 -0.02  0.03
      3   O               -0.01 -0.05  0.01    0.00 -0.00 -0.02   -0.24 -0.24  0.03
      4   H                0.54  0.64 -0.09    0.05 -0.13 -0.68    0.40  0.35 -0.04
      5   H                0.53 -0.01  0.04   -0.05  0.13  0.70   -0.36  0.34 -0.09

  Vibration                       13                  14                  15
  Freq [cm^-1]                1554.9422           1846.4619           2100.3591
  Irrep                           A                   A                   A
  Reduced mass [u]              1.0662              1.1131              5.4294
  Force const [mDyne/A]         1.5188              2.2360             14.1121
  Turning point v=0 [a0]        0.2695              0.2420              0.1028
  RMS dev v=0 [a0 u^1/2]        0.1968              0.1806              0.1693
  Char temp [K]               2237.2122           2656.6435           3021.9445
  ----------------------------------------------------------------------------------
      1   C               -0.03 -0.02  0.00    0.07  0.01  0.00    0.46  0.25 -0.02
      2   O                0.03 -0.02  0.01    0.00 -0.03  0.01   -0.11  0.02 -0.01
      3   O                0.03  0.02 -0.00   -0.04 -0.03  0.00   -0.23 -0.17  0.02
      4   H               -0.54  0.65 -0.16   -0.58  0.15 -0.07    0.09  0.13 -0.02
      5   H               -0.19 -0.46  0.07    0.46  0.64 -0.09   -0.22 -0.74  0.13

  ==> Thermochemistry Components <==

  Entropy, S
    Electronic S            0.000 [cal/(mol K)]        0.000 [J/(mol K)]       0.00000000 [mEh/K] (multiplicity = 1)
    Translational S        37.404 [cal/(mol K)]      156.497 [J/(mol K)]       0.05960663 [mEh/K] (mol. weight = 46.0055 [u], P = 101325.00 [Pa])
    Rotational S           21.018 [cal/(mol K)]       87.941 [J/(mol K)]       0.03349485 [mEh/K] (symmetry no. = 1)
    Vibrational S           1.232 [cal/(mol K)]        5.153 [J/(mol K)]       0.00196262 [mEh/K]
  Total S                  59.654 [cal/(mol K)]      249.591 [J/(mol K)]       0.09506409 [mEh/K]
  Correction S              0.000 [cal/(mol K)]        0.000 [J/(mol K)]       0.00000000 [mEh/K]

  Constant volume heat capacity, Cv
    Electronic Cv           0.000 [cal/(mol K)]        0.000 [J/(mol K)]       0.00000000 [mEh/K]
    Translational Cv        2.981 [cal/(mol K)]       12.472 [J/(mol K)]       0.00475022 [mEh/K]
    Rotational Cv           2.981 [cal/(mol K)]       12.472 [J/(mol K)]       0.00475022 [mEh/K]
    Vibrational Cv          3.274 [cal/(mol K)]       13.700 [J/(mol K)]       0.00521801 [mEh/K]
  Total Cv                  9.236 [cal/(mol K)]       38.643 [J/(mol K)]       0.01471845 [mEh/K]
  Correction Cv             0.000 [cal/(mol K)]        0.000 [J/(mol K)]       0.00000000 [mEh/K]

  Constant pressure heat capacity, Cp
    Electronic Cp           0.000 [cal/(mol K)]        0.000 [J/(mol K)]       0.00000000 [mEh/K]
    Translational Cp        4.968 [cal/(mol K)]       20.786 [J/(mol K)]       0.00791704 [mEh/K]
    Rotational Cp           2.981 [cal/(mol K)]       12.472 [J/(mol K)]       0.00475022 [mEh/K]
    Vibrational Cp          3.274 [cal/(mol K)]       13.700 [J/(mol K)]       0.00521801 [mEh/K]
  Total Cp                 11.223 [cal/(mol K)]       46.958 [J/(mol K)]       0.01788527 [mEh/K]
  Correction Cp             0.000 [cal/(mol K)]        0.000 [J/(mol K)]       0.00000000 [mEh/K]

  ==> Thermochemistry Energy Analysis <==

  Raw electronic energy, E0
  Total E0, Electronic energy at well bottom at 0 [K]                 -188.57204826 [Eh]

  Zero-point energy, ZPE_vib = Sum_i nu_i / 2
    Electronic ZPE          0.000 [kcal/mol]        0.000 [kJ/mol]       0.00000000 [Eh]
    Translational ZPE       0.000 [kcal/mol]        0.000 [kJ/mol]       0.00000000 [Eh]
    Rotational ZPE          0.000 [kcal/mol]        0.000 [kJ/mol]       0.00000000 [Eh]
    Vibrational ZPE        14.036 [kcal/mol]       58.728 [kJ/mol]       0.02236844 [Eh]        4909.304 [cm^-1]
  Correction ZPE           14.036 [kcal/mol]       58.728 [kJ/mol]       0.02236844 [Eh]        4909.304 [cm^-1]
  Total ZPE, Electronic energy at 0 [K]                               -188.54967983 [Eh]

  Thermal Energy, E (includes ZPE)
    Electronic E            0.000 [kcal/mol]        0.000 [kJ/mol]       0.00000000 [Eh]
    Translational E         0.889 [kcal/mol]        3.718 [kJ/mol]       0.00141628 [Eh]
    Rotational E            0.889 [kcal/mol]        3.718 [kJ/mol]       0.00141628 [Eh]
    Vibrational E          14.317 [kcal/mol]       59.901 [kJ/mol]       0.02281505 [Eh]
  Correction E             16.094 [kcal/mol]       67.338 [kJ/mol]       0.02564761 [Eh]
  Total E, Electronic energy at  298.15 [K]                           -188.54640065 [Eh]

  Enthalpy, H_trans = E_trans + k_B * T
    Electronic H            0.000 [kcal/mol]        0.000 [kJ/mol]       0.00000000 [Eh]
    Translational H         1.481 [kcal/mol]        6.197 [kJ/mol]       0.00236046 [Eh]
    Rotational H            0.889 [kcal/mol]        3.718 [kJ/mol]       0.00141628 [Eh]
    Vibrational H          14.317 [kcal/mol]       59.901 [kJ/mol]       0.02281505 [Eh]
  Correction H             16.687 [kcal/mol]       69.817 [kJ/mol]       0.02659179 [Eh]
  Total H, Enthalpy at  298.15 [K]                                    -188.54545647 [Eh]

  Gibbs free energy, G = H - T * S
    Electronic G            0.000 [kcal/mol]        0.000 [kJ/mol]       0.00000000 [Eh]
    Translational G        -9.671 [kcal/mol]      -40.462 [kJ/mol]      -0.01541125 [Eh]
    Rotational G           -5.378 [kcal/mol]      -22.501 [kJ/mol]      -0.00857021 [Eh]
    Vibrational G          13.949 [kcal/mol]       58.365 [kJ/mol]       0.02222990 [Eh]
  Correction G             -1.099 [kcal/mol]       -4.599 [kJ/mol]      -0.00175156 [Eh]
  Total G, Free enthalpy at  298.15 [K]                               -188.57379983 [Eh]

    Psi4 stopped on: Friday, 22 March 2019 09:41AM
    Psi4 wall time for execution: 0:01:22.04

*** Psi4 exiting successfully. Buy a developer a beer!
