                               Psi4 1.2.1 release

  ==> Input File <==

--------------------------------------------------------------------------
molecule{
0 1
    C            0.113595072843    -0.153880407652     0.037596022684
    O           -1.135961394234    -0.223379947195    -0.034588131338
    O            1.064242147389     0.524605985828    -0.028439251841
    H            0.404693854873    -1.556634791353     0.327550495378
    H           -0.619014433727    -1.391813384411     0.225090412236
}

set{
   basis def2-svp
   freeze_core True
   reference uhf
   full_hess_every 0
   normal_modes_write True
}

set_num_threads(32)
frequencies('b3lyp')
--------------------------------------------------------------------------

    Molecular point group: c1
  Charge       = 0
  Multiplicity = 1
  Basis Set: DEF2-SVP
    Blend: DEF2-SVP
  Basis Set: (DEF2-SVP AUX)
    Blend: DEF2-SVP-JKFIT
  @DF-UKS Final Energy:  -189.50583676669635
    Total Energy =                       -189.5058367666963477
    Molecular point group: c1
  Basis Set: DEF2-SVP
    Blend: DEF2-SVP
  Basis Set: (DEF2-SVP AUX)
    Blend: DEF2-SVP-JKFIT
  Basis Set: DEF2-SVP
    Blend: DEF2-SVP
  Basis Set: (DEF2-SVP AUX)
    Blend: DEF2-SVP-JKFIT
  @DF-UKS Final Energy:  -189.50583543992826
    Total Energy =                       -189.5058354399282905
  Basis Set: DEF2-SVP
    Blend: DEF2-SVP
  Basis Set: (DEF2-SVP AUX)
    Blend: DEF2-SVP-JKFIT
  Basis Set: DEF2-SVP
    Blend: DEF2-SVP
  @DF-UKS Final Energy:  -189.50583488245846
    Total Energy =                       -189.5058348824584868
  @DF-UKS Final Energy:  -189.50583619429503
    Total Energy =                       -189.5058361942950285
  @DF-UKS Final Energy:  -189.50583629722286
    Total Energy =                       -189.5058362972228281
  @DF-UKS Final Energy:  -189.50583664306669
    Total Energy =                       -189.5058366430666865
  @DF-UKS Final Energy:  -189.50583643510299
    Total Energy =                       -189.5058364351029923
  @DF-UKS Final Energy:  -189.50583621112020
    Total Energy =                       -189.5058362111201973
  @DF-UKS Final Energy:  -189.50583604251614
    Total Energy =                       -189.5058360425161652
  @DF-UKS Final Energy:  -189.50583703837466
    Total Energy =                       -189.5058370383746649
  @DF-UKS Final Energy:  -189.50583696823389
    Total Energy =                       -189.5058369682338650
  @DF-UKS Final Energy:  -189.50583642003335
    Total Energy =                       -189.5058364200333756
  @DF-UKS Final Energy:  -189.50583615844585
    Total Energy =                       -189.5058361584458453
  @DF-UKS Final Energy:  -189.50583608729522
    Total Energy =                       -189.5058360872951937
  @DF-UKS Final Energy:  -189.50583552475345
    Total Energy =                       -189.5058355247534223
  @DF-UKS Final Energy:  -189.50583617427594
    Total Energy =                       -189.5058361742759416
  @DF-UKS Final Energy:  -189.50583559176116
    Total Energy =                       -189.5058355917611834
  @DF-UKS Final Energy:  -189.50583521719594
    Total Energy =                       -189.5058352171959655
  Basis Set: (DEF2-SVP AUX)
    Blend: DEF2-SVP-JKFIT
  Basis Set: DEF2-SVP
    Blend: DEF2-SVP
  Basis Set: (DEF2-SVP AUX)
    Blend: DEF2-SVP-JKFIT
  @DF-UKS Final Energy:  -189.50583726940243
    Total Energy =                       -189.5058372694024627
  Basis Set: DEF2-SVP
    Blend: DEF2-SVP
  Basis Set: (DEF2-SVP AUX)
    Blend: DEF2-SVP-JKFIT
    Molecular point group: c1
  Charge       = 0
  Multiplicity = 1
  Basis Set: DEF2-SVP
    Blend: DEF2-SVP
  Basis Set: (DEF2-SVP AUX)
    Blend: DEF2-SVP-JKFIT

    Orbital Energies [Eh]
    ---------------------

    Alpha Occupied:

       1A    -19.199175     2A    -19.192634     3A    -10.394277
       4A     -1.139834     5A     -1.082443     6A     -0.627374
       7A     -0.551889     8A     -0.506026     9A     -0.500974
      10A     -0.393852    11A     -0.358908    12A     -0.314859

    Alpha Virtual:

      13A     -0.046808    14A     -0.004863    15A      0.073734
      16A      0.158859    17A      0.301035    18A      0.405698
      19A      0.407958    20A      0.450136    21A      0.514440
      22A      0.559242    23A      0.672166    24A      0.841197
      25A      0.898316    26A      0.920159    27A      1.016548
      28A      1.016805    29A      1.133820    30A      1.134229
      31A      1.276830    32A      1.340872    33A      1.453177
      34A      1.505127    35A      1.583784    36A      1.654697
      37A      1.692012    38A      1.705145    39A      1.988261
      40A      2.192225    41A      2.266555    42A      2.584635
      43A      2.639171    44A      2.672963    45A      2.692036
      46A      2.831387    47A      3.016757    48A      3.232525
      49A      3.331500    50A      3.341193    51A      3.561291
      52A      3.744888

    Beta Occupied:

       1A    -19.199175     2A    -19.192634     3A    -10.394277
       4A     -1.139834     5A     -1.082443     6A     -0.627374
       7A     -0.551889     8A     -0.506026     9A     -0.500974
      10A     -0.393852    11A     -0.358908    12A     -0.314859

    Beta Virtual:

      13A     -0.046808    14A     -0.004863    15A      0.073734
      16A      0.158859    17A      0.301035    18A      0.405698
      19A      0.407958    20A      0.450136    21A      0.514440
      22A      0.559242    23A      0.672166    24A      0.841197
      25A      0.898316    26A      0.920159    27A      1.016548
      28A      1.016805    29A      1.133820    30A      1.134229
      31A      1.276830    32A      1.340872    33A      1.453177
      34A      1.505127    35A      1.583784    36A      1.654697
      37A      1.692012    38A      1.705145    39A      1.988261
      40A      2.192225    41A      2.266555    42A      2.584635
      43A      2.639171    44A      2.672963    45A      2.692036
      46A      2.831387    47A      3.016757    48A      3.232525
      49A      3.331500    50A      3.341193    51A      3.561291
      52A      3.744888

    Final Occupation by Irrep:
              A
    DOCC [    12 ]
    SOCC [     0 ]

  Energy converged.

  @DF-UKS Final Energy:  -189.50583676674049

   => Energetics <=

    Nuclear Repulsion Energy =             70.2765897196903495
    One-Electron Energy =                -397.5443949511386563
    Two-Electron Energy =                 156.5542717339266119
    DFT Exchange-Correlation Energy =     -18.7923032692188023
    Empirical Dispersion Energy =           0.0000000000000000
    VV10 Nonlocal Energy =                  0.0000000000000000
    Total Energy =                       -189.5058367667404582

  UHF NO Occupations:
  HONO-2 :   10  A 2.0000000
  HONO-1 :   11  A 2.0000000
  HONO-0 :   12  A 2.0000000
  LUNO+0 :   13  A 0.0000000
  LUNO+1 :   14  A 0.0000000
  LUNO+2 :   15  A 0.0000000
  LUNO+3 :   16  A 0.0000000

Properties will be evaluated at   0.000000,   0.000000,   0.000000 [a0]

Properties computed using the SCF density matrix

  Nuclear Dipole Moment: [e a0]
     X:    -0.2013      Y:    -2.7626      Z:     0.5178

  Electronic Dipole Moment: [e a0]
     X:     0.1074      Y:     2.1337      Z:    -0.4032

  Dipole Moment: [e a0]
     X:    -0.0939      Y:    -0.6289      Z:     0.1146     Total:     0.6462

  Dipole Moment: [D]
     X:    -0.2387      Y:    -1.5986      Z:     0.2913     Total:     1.6424

*** tstop() called on localhost.localdomain at Fri Mar 29 12:31:36 2019
Module time:
	user time   =     237.01 seconds =       3.95 minutes
	system time =      17.86 seconds =       0.30 minutes
	total time  =          9 seconds =       0.15 minutes
Total time:
	user time   =    5886.65 seconds =      98.11 minutes
	system time =     448.22 seconds =       7.47 minutes
	total time  =        232 seconds =       3.87 minutes

*** tstart() called on localhost.localdomain
*** at Fri Mar 29 12:31:36 2019

         ------------------------------------------------------------
                                   SCF GRAD
                          Rob Parrish, Justin Turney,
                       Andy Simmonett, and Alex Sokolov
         ------------------------------------------------------------

  ==> Geometry <==

    Molecular point group: c1
    Full point group: C1

    Geometry (in Angstrom), charge = 0, multiplicity = 1:

       Center              X                  Y                   Z               Mass
    ------------   -----------------  -----------------  -----------------  -----------------
         C            0.113595072843    -0.153880407652     0.037596022684    12.000000000000
         O           -1.135961394234    -0.223379947195    -0.034588131338    15.994914619560
         O            1.064242147389     0.524605985828    -0.028439251841    15.994914619560
         H            0.404693854873    -1.556634791353     0.327550495378     1.007825032070
         H           -0.619014433727    -1.391813384411     0.225090412236     1.007825032070

  Nuclear repulsion =   70.276589719690364

  ==> Basis Set <==

  Basis Set: DEF2-SVP
    Blend: DEF2-SVP
    Number of shells: 24
    Number of basis function: 52
    Number of Cartesian functions: 55
    Spherical Harmonics?: true
    Max angular momentum: 2

  ==> DFJKGrad: Density-Fitted SCF Gradients <==

    Gradient:                    1
    J tasked:                  Yes
    K tasked:                  Yes
    wK tasked:                  No
    OpenMP threads:             32
    Integrals threads:          32
    Memory (MB):               375
    Schwarz Cutoff:          0E+00
    Fitting Condition:       1E-12

   => Auxiliary Basis Set <=

  Basis Set: (DEF2-SVP AUX)
    Blend: DEF2-SVP-JKFIT
    Number of shells: 87
    Number of basis function: 265
    Number of Cartesian functions: 315
    Spherical Harmonics?: true
    Max angular momentum: 4

  ==> DFT Potential <==

   => Composite Functional: B3LYP <=

    B3LYP Hyb-GGA Exchange-Correlation Functional

    P. J. Stephens, F. J. Devlin, C. F. Chabalowski, and M. J. Frisch, J. Phys. Chem. 98, 11623 (1994)

    Deriv               =              1
    GGA                 =           TRUE
    Meta                =          FALSE

    Exchange Hybrid     =           TRUE
    MP2 Hybrid          =          FALSE

   => Exchange Functionals <=

    0.0800   Slater exchange
    0.7200         Becke 88

   => Exact (HF) Exchange <=

    0.2000               HF

   => Correlation Functionals <=

    0.1900   Vosko, Wilk & Nusair (VWN5_RPA)
    0.8100   Lee, Yang & Parr

   => Molecular Quadrature <=

    Radial Scheme       =       TREUTLER
    Pruning Scheme      =           FLAT
    Nuclear Scheme      =       TREUTLER

    BS radius alpha     =              1
    Pruning alpha       =              1
    Radial Points       =             75
    Spherical Points    =            302
    Total Points        =         109988
    Total Blocks        =            892
    Max Points          =            256
    Max Functions       =             51

  -Total Gradient:
     Atom            X                  Y                   Z
    ------   -----------------  -----------------  -----------------
       1        0.000180148394    -0.000043510358     0.000063678566
       2       -0.000032717824     0.000058079242    -0.000015472988
       3       -0.000042285038     0.000077454330    -0.000043650691
       4       -0.000176178571    -0.000039442727     0.000005849618
       5        0.000117838963    -0.000047609250    -0.000008373917

*** tstop() called on localhost.localdomain at Fri Mar 29 12:31:39 2019
Module time:
	user time   =      64.32 seconds =       1.07 minutes
	system time =       5.20 seconds =       0.09 minutes
	total time  =          3 seconds =       0.05 minutes
Total time:
	user time   =    5951.02 seconds =      99.18 minutes
	system time =     453.43 seconds =       7.56 minutes
	total time  =        235 seconds =       3.92 minutes

-------------------------------------------------------------

  Computing second-derivative from gradients using projected,
  symmetry-adapted, cartesian coordinates (fd_freq_1).

  19 gradients passed in, including the reference geometry.
  Generating complete list of displacements from unique ones.

-------------------------------------------------------------

  ==> Harmonic Vibrational Analysis <==

  non-mass-weighted Hessian:       Symmetric? True   Hermitian? True   Lin Dep Dim?  6 (0)
  projection of translations (True) and rotations (True) removed 6 degrees of freedom (6)
  total projector:                 Symmetric? True   Hermitian? True   Lin Dep Dim?  6 (6)
  mass-weighted Hessian:           Symmetric? True   Hermitian? True   Lin Dep Dim?  6 (0)
  pre-proj  low-frequency mode:    0.0000i [cm^-1]
  pre-proj  low-frequency mode:    0.0000i [cm^-1]
  pre-proj  low-frequency mode:    0.0000i [cm^-1]
  pre-proj  low-frequency mode:    0.0000  [cm^-1]
  pre-proj  low-frequency mode:    0.0000  [cm^-1]
  pre-proj  low-frequency mode:    0.0000  [cm^-1]
  pre-proj  low-frequency mode:    0.0000  [cm^-1]
  pre-proj  all modes:['2214.5805i' '0.0000i' '0.0000i' '0.0000' '0.0000' '0.0000' '0.0000'
 '584.7104' '739.8419' '881.9819' '1076.6719' '1363.5602' '1744.0981'
 '2071.3932' '2174.2553']
  projected mass-weighted Hessian: Symmetric? True   Hermitian? True   Lin Dep Dim?  6 (6)
  post-proj low-frequency mode: 2214.5805i [cm^-1] (V)
  post-proj low-frequency mode:    0.0000i [cm^-1] (TR)
  post-proj low-frequency mode:    0.0000i [cm^-1] (TR)
  post-proj low-frequency mode:    0.0000i [cm^-1] (TR)
  post-proj low-frequency mode:    0.0000i [cm^-1] (TR)
  post-proj low-frequency mode:    0.0000  [cm^-1] (TR)
  post-proj low-frequency mode:    0.0000  [cm^-1] (TR)
  post-proj  all modes:['2214.5805i' '0.0000i' '0.0000i' '0.0000i' '0.0000i' '0.0000' '0.0000'
 '584.7104' '739.8419' '881.9819' '1076.6719' '1363.5602' '1744.0981'
 '2071.3932' '2174.2553']

  Vibration                       1                   8                   9
  Freq [cm^-1]                2214.5805i           584.7104            739.8419
  Irrep                           A                   A                   A
  Reduced mass [u]              1.1623              2.5982             10.5712
  Force const [mDyne/A]        -3.3586              0.5234              3.4092
  Turning point v=0 [a0]        0.0000              0.2815              0.1241
  RMS dev v=0 [a0 u^1/2]        0.0000              0.3209              0.2853
  Char temp [K]                 0.0000             841.2668           1064.4662
  ----------------------------------------------------------------------------------
      1   C               -0.08  0.07 -0.02   -0.02  0.06  0.34   -0.14  0.57 -0.12
      2   O                0.02  0.03 -0.00    0.00 -0.01 -0.06   -0.27 -0.35  0.05
      3   O                0.00 -0.03  0.01    0.01 -0.02 -0.12    0.40 -0.12  0.05
      4   H               -0.12 -0.37  0.06    0.01 -0.02 -0.11   -0.05  0.27 -0.06
      5   H                0.74 -0.51  0.15    0.06 -0.17 -0.90   -0.26  0.34 -0.08

  Vibration                       10                  11                  12
  Freq [cm^-1]                 881.9819           1076.6719           1363.5602
  Irrep                           A                   A                   A
  Reduced mass [u]              1.1432              1.1847              6.8137
  Force const [mDyne/A]         0.5239              0.8092              7.4642
  Turning point v=0 [a0]        0.3456              0.3072              0.1138
  RMS dev v=0 [a0 u^1/2]        0.2613              0.2365              0.2101
  Char temp [K]               1268.9736           1549.0888           1961.8565
  ----------------------------------------------------------------------------------
      1   C               -0.02 -0.05  0.01    0.01 -0.02 -0.10   -0.21  0.28 -0.07
      2   O               -0.06  0.03 -0.01   -0.00  0.01  0.05    0.41 -0.03  0.03
      3   O                0.01 -0.04  0.01   -0.00  0.00  0.02   -0.25 -0.24  0.03
      4   H                0.56  0.66 -0.09   -0.05  0.14  0.72    0.20  0.57 -0.10
      5   H                0.47  0.06  0.02    0.04 -0.13 -0.66   -0.26  0.36 -0.09

  Vibration                       13                  14                  15
  Freq [cm^-1]                1744.0981           2071.3932           2174.2553
  Irrep                           A                   A                   A
  Reduced mass [u]              1.0918              1.0369              6.5364
  Force const [mDyne/A]         1.9568              2.6212             18.2058
  Turning point v=0 [a0]        0.2515              0.2368              0.0920
  RMS dev v=0 [a0 u^1/2]        0.1858              0.1705              0.1664
  Char temp [K]               2509.3651           2980.2691           3128.2645
  ----------------------------------------------------------------------------------
      1   C                0.04  0.03 -0.00   -0.02  0.03 -0.01    0.54  0.24 -0.01
      2   O               -0.03  0.01 -0.00   -0.01  0.03 -0.01   -0.15  0.01 -0.01
      3   O               -0.04 -0.03  0.00    0.01 -0.01  0.00   -0.25 -0.17  0.02
      4   H                0.38 -0.57  0.14    0.70 -0.25  0.10   -0.25  0.31 -0.08
      5   H                0.25  0.65 -0.11   -0.44 -0.48  0.06    0.06 -0.60  0.12

  ==> Thermochemistry Components <==

  Entropy, S
    Electronic S            0.000 [cal/(mol K)]        0.000 [J/(mol K)]       0.00000000 [mEh/K] (multiplicity = 1)
    Translational S        37.404 [cal/(mol K)]      156.497 [J/(mol K)]       0.05960663 [mEh/K] (mol. weight = 46.0055 [u], P = 101325.00 [Pa])
    Rotational S           20.877 [cal/(mol K)]       87.350 [J/(mol K)]       0.03326983 [mEh/K] (symmetry no. = 1)
    Vibrational S           0.984 [cal/(mol K)]        4.118 [J/(mol K)]       0.00156845 [mEh/K]
  Total S                  59.265 [cal/(mol K)]      247.965 [J/(mol K)]       0.09444491 [mEh/K]
  Correction S              0.000 [cal/(mol K)]        0.000 [J/(mol K)]       0.00000000 [mEh/K]

  Constant volume heat capacity, Cv
    Electronic Cv           0.000 [cal/(mol K)]        0.000 [J/(mol K)]       0.00000000 [mEh/K]
    Translational Cv        2.981 [cal/(mol K)]       12.472 [J/(mol K)]       0.00475022 [mEh/K]
    Rotational Cv           2.981 [cal/(mol K)]       12.472 [J/(mol K)]       0.00475022 [mEh/K]
    Vibrational Cv          2.811 [cal/(mol K)]       11.761 [J/(mol K)]       0.00447964 [mEh/K]
  Total Cv                  8.773 [cal/(mol K)]       36.705 [J/(mol K)]       0.01398008 [mEh/K]
  Correction Cv             0.000 [cal/(mol K)]        0.000 [J/(mol K)]       0.00000000 [mEh/K]

  Constant pressure heat capacity, Cp
    Electronic Cp           0.000 [cal/(mol K)]        0.000 [J/(mol K)]       0.00000000 [mEh/K]
    Translational Cp        4.968 [cal/(mol K)]       20.786 [J/(mol K)]       0.00791704 [mEh/K]
    Rotational Cp           2.981 [cal/(mol K)]       12.472 [J/(mol K)]       0.00475022 [mEh/K]
    Vibrational Cp          2.811 [cal/(mol K)]       11.761 [J/(mol K)]       0.00447964 [mEh/K]
  Total Cp                 10.760 [cal/(mol K)]       45.019 [J/(mol K)]       0.01714690 [mEh/K]
  Correction Cp             0.000 [cal/(mol K)]        0.000 [J/(mol K)]       0.00000000 [mEh/K]

  ==> Thermochemistry Energy Analysis <==

  Raw electronic energy, E0
  Total E0, Electronic energy at well bottom at 0 [K]                 -189.50583677 [Eh]

  Zero-point energy, ZPE_vib = Sum_i nu_i / 2
    Electronic ZPE          0.000 [kcal/mol]        0.000 [kJ/mol]       0.00000000 [Eh]
    Translational ZPE       0.000 [kcal/mol]        0.000 [kJ/mol]       0.00000000 [Eh]
    Rotational ZPE          0.000 [kcal/mol]        0.000 [kJ/mol]       0.00000000 [Eh]
    Vibrational ZPE        15.206 [kcal/mol]       63.620 [kJ/mol]       0.02423175 [Eh]        5318.255 [cm^-1]
  Correction ZPE           15.206 [kcal/mol]       63.620 [kJ/mol]       0.02423175 [Eh]        5318.255 [cm^-1]
  Total ZPE, Electronic energy at 0 [K]                               -189.48160501 [Eh]

  Thermal Energy, E (includes ZPE)
    Electronic E            0.000 [kcal/mol]        0.000 [kJ/mol]       0.00000000 [Eh]
    Translational E         0.889 [kcal/mol]        3.718 [kJ/mol]       0.00141628 [Eh]
    Rotational E            0.889 [kcal/mol]        3.718 [kJ/mol]       0.00141628 [Eh]
    Vibrational E          15.433 [kcal/mol]       64.572 [kJ/mol]       0.02459418 [Eh]
  Correction E             17.211 [kcal/mol]       72.009 [kJ/mol]       0.02742674 [Eh]
  Total E, Electronic energy at  298.15 [K]                           -189.47841003 [Eh]

  Enthalpy, H_trans = E_trans + k_B * T
    Electronic H            0.000 [kcal/mol]        0.000 [kJ/mol]       0.00000000 [Eh]
    Translational H         1.481 [kcal/mol]        6.197 [kJ/mol]       0.00236046 [Eh]
    Rotational H            0.889 [kcal/mol]        3.718 [kJ/mol]       0.00141628 [Eh]
    Vibrational H          15.433 [kcal/mol]       64.572 [kJ/mol]       0.02459418 [Eh]
  Correction H             17.803 [kcal/mol]       74.488 [kJ/mol]       0.02837093 [Eh]
  Total H, Enthalpy at  298.15 [K]                                    -189.47746584 [Eh]

  Gibbs free energy, G = H - T * S
    Electronic G            0.000 [kcal/mol]        0.000 [kJ/mol]       0.00000000 [Eh]
    Translational G        -9.671 [kcal/mol]      -40.462 [kJ/mol]      -0.01541125 [Eh]
    Rotational G           -5.336 [kcal/mol]      -22.325 [kJ/mol]      -0.00850312 [Eh]
    Vibrational G          15.140 [kcal/mol]       63.344 [kJ/mol]       0.02412655 [Eh]
  Correction G              0.133 [kcal/mol]        0.557 [kJ/mol]       0.00021218 [Eh]
  Total G, Free enthalpy at  298.15 [K]                               -189.50562459 [Eh]

    Psi4 stopped on: Friday, 29 March 2019 12:31PM
    Psi4 wall time for execution: 0:03:55.18

*** Psi4 exiting successfully. Buy a developer a beer!
