                               Psi4 1.2.1 release

  ==> Input File <==

--------------------------------------------------------------------------
molecule{
0 1
    C            0.006693528323    -0.279637224262    -0.800657894312
    O           -1.082449924363    -0.421790259210    -1.488009949304
   Cl            1.062802919574    -0.023956486458     1.295002973653
   Cl           -1.097540296949     0.080594509799     1.276019061556
    H            0.977178856231     2.910158820172    -1.818849957232
    C            1.210429673681     1.867745006711    -1.614497179894
    H            1.400921277045     1.327364042081    -2.544543421282
    H            2.068481200267     1.802670198536    -0.948289164455
    O            0.082405440961     1.298677551225    -0.934784006658
    H           -0.815824867107     0.946670755852    -1.521709556490
    C           -0.049907967661    -0.505361914600     0.713694707408
   Cl           -0.104426112788    -1.814354521104     0.969130055961
    H            0.966199620589    -0.661243005328    -1.191145669509

}

set{
   basis 6-311++G(d,p)
   freeze_core True
   opt_type ts
}

set_num_threads(16)
optimize('m06-2x')
--------------------------------------------------------------------------

    Molecular point group: c1
  Charge       = 0
  Multiplicity = 1
  Basis Set: 6-311++G(D,P)
    Blend: 6-311++G(D,P)
  Basis Set: (6-311++G(D,P) AUX)
    Blend: AUG-CC-PVTZ-JKFIT
  @DF-RKS Final Energy: -1647.58407993989931
    Total Energy =                      -1647.5840799398993113
    Molecular point group: c1
  Basis Set: 6-311++G(D,P)
    Blend: 6-311++G(D,P)
  Basis Set: (6-311++G(D,P) AUX)
    Blend: AUG-CC-PVTZ-JKFIT
  Basis Set: 6-311++G(D,P)
    Blend: 6-311++G(D,P)
  Basis Set: (6-311++G(D,P) AUX)
    Blend: AUG-CC-PVTZ-JKFIT
  @DF-RKS Final Energy: -1647.86244241181589
    Total Energy =                      -1647.8624424118158913
  Basis Set: 6-311++G(D,P)
    Blend: 6-311++G(D,P)
  Basis Set: (6-311++G(D,P) AUX)
    Blend: AUG-CC-PVTZ-JKFIT
  Basis Set: 6-311++G(D,P)
    Blend: 6-311++G(D,P)
  @DF-RKS Final Energy: -1648.04465847439224
    Total Energy =                      -1648.0446584743922358
  @DF-RKS Final Energy: -1648.14642919247535
    Total Energy =                      -1648.1464291924753525
  @DF-RKS Final Energy: -1648.20405901196887
    Total Energy =                      -1648.2040590119688659
  @DF-RKS Final Energy: -1648.23036398027989
    Total Energy =                      -1648.2303639802798898
  @DF-RKS Final Energy: -1648.24031936999381
    Total Energy =                      -1648.2403193699938129
  @DF-RKS Final Energy: -1648.24395036425517
    Total Energy =                      -1648.2439503642551699
  @DF-RKS Final Energy: -1648.24835031851194
    Total Energy =                      -1648.2483503185119389
  @DF-RKS Final Energy: -1648.24440912797945
    Total Energy =                      -1648.2444091279794520
  @DF-RKS Final Energy: -1648.24203286776333
    Total Energy =                      -1648.2420328677633279
  @DF-RKS Final Energy: -1648.24273575026177
    Total Energy =                      -1648.2427357502617724
  @DF-RKS Final Energy: -1648.24297593125652
    Total Energy =                      -1648.2429759312565238
  @DF-RKS Final Energy: -1648.24318826762578
    Total Energy =                      -1648.2431882676257828
  @DF-RKS Final Energy: -1648.24313964059570
    Total Energy =                      -1648.2431396405957003
  @DF-RKS Final Energy: -1648.24266603281831
    Total Energy =                      -1648.2426660328183061
  @DF-RKS Final Energy: -1648.24298328168379
    Total Energy =                      -1648.2429832816837916
  @DF-RKS Final Energy: -1648.24352434564730
    Total Energy =                      -1648.2435243456473017
  @DF-RKS Final Energy: -1648.24343459028819
    Total Energy =                      -1648.2434345902881887
  @DF-RKS Final Energy: -1648.24359377168935
    Total Energy =                      -1648.2435937716893477
  @DF-RKS Final Energy: -1648.24359563236135
    Total Energy =                      -1648.2435956323615756
  @DF-RKS Final Energy: -1648.24360442230659
    Total Energy =                      -1648.2436044223065892
  @DF-RKS Final Energy: -1648.24360605688480
    Total Energy =                      -1648.2436060568848006
  Basis Set: (6-311++G(D,P) AUX)
    Blend: AUG-CC-PVTZ-JKFIT
  Basis Set: 6-311++G(D,P)
    Blend: 6-311++G(D,P)
  Basis Set: (6-311++G(D,P) AUX)
    Blend: AUG-CC-PVTZ-JKFIT
  @DF-RKS Final Energy: -1648.24360756942360
    Total Energy =                      -1648.2436075694233750
  Basis Set: 6-311++G(D,P)
    Blend: 6-311++G(D,P)
  Basis Set: (6-311++G(D,P) AUX)
    Blend: AUG-CC-PVTZ-JKFIT
  Charge       = 0
  Multiplicity = 1
  Basis Set: 6-311++G(D,P)
    Blend: 6-311++G(D,P)
  Basis Set: (6-311++G(D,P) AUX)
    Blend: AUG-CC-PVTZ-JKFIT

    Orbital Energies [Eh]
    ---------------------

    Doubly Occupied:

       1A   -102.701295     2A   -102.697324     3A   -102.694245
       4A    -19.717163     5A    -19.597763     6A    -10.733236
       7A    -10.691089     8A    -10.629762     9A     -9.844051
      10A     -9.839923    11A     -9.836903    12A     -7.569278
      13A     -7.565316    14A     -7.562379    15A     -7.562135
      16A     -7.561989    17A     -7.557880    18A     -7.557726
      19A     -7.554812    20A     -7.554715    21A     -1.260602
      22A     -1.131260    23A     -1.055827    24A     -0.943791
      25A     -0.941790    26A     -0.847592    27A     -0.805542
      28A     -0.687419    29A     -0.658479    30A     -0.613979
      31A     -0.594270    32A     -0.560116    33A     -0.541192
      34A     -0.538927    35A     -0.504852    36A     -0.475173
      37A     -0.473314    38A     -0.425169    39A     -0.422331
      40A     -0.408626    41A     -0.391651    42A     -0.388597
      43A     -0.373780    44A     -0.364703    45A     -0.341826

  @DF-RKS Final Energy: -1648.24360757878026

   => Energetics <=

    Nuclear Repulsion Energy =            679.4635777059490920
    One-Electron Energy =               -3623.4504488278544159
    Two-Electron Energy =                1352.8369130321827924
    DFT Exchange-Correlation Energy =     -57.0936494890580377
    Empirical Dispersion Energy =           0.0000000000000000
    VV10 Nonlocal Energy =                  0.0000000000000000
    Total Energy =                      -1648.2436075787802565

  Dipole Moment: [D]
     X:     2.9702      Y:     3.1702      Z:    -1.5609     Total:     4.6161

    Molecular point group: c1
  Basis Set: 6-311++G(D,P)
    Blend: 6-311++G(D,P)
  Basis Set: (6-311++G(D,P) AUX)
    Blend: AUG-CC-PVTZ-JKFIT

  -Total Gradient:
     Atom            X                  Y                   Z
    ------   -----------------  -----------------  -----------------
       1       -0.000114726276    -0.000138567328    -0.000055370849
       2        0.000110496877     0.000080269629     0.000082540629
       3       -0.000176271526    -0.000074380478    -0.000044585055
       4       -0.000132486725     0.000069338174     0.000094173416
       5        0.000034768984     0.000022063356     0.000032606148
       6        0.000009393149     0.000020983128     0.000000363054
       7        0.000022764129     0.000028473278     0.000024708165
       8        0.000009344395    -0.000007617318     0.000035474993
       9       -0.000022075925     0.000055151731    -0.000031323460
      10        0.000098047629     0.000079894972     0.000038381656
      11        0.000252010020     0.000054830374    -0.000037117370
      12        0.000025561170    -0.000051201206    -0.000001944158
      13        0.000007702728    -0.000008286995     0.000004798026

  **** Optimization is complete! (in 25 steps) ****
    Final optimized geometry and variables:
    Molecular point group: c1

    Geometry (in Angstrom), charge = 0, multiplicity = 1:

    C            0.040730912894    -0.059531542501    -1.173581810046
    O           -1.015897442692    -0.278645628566    -1.886194723693
    CL           1.423690007801     0.380975008283     1.119493608441
    CL          -1.487966445222     0.325334852871     1.062528577890
    H            0.777173124071     3.176101854822    -2.228608122285
    C            1.086340338636     2.157591160917    -2.004506247428
    H            1.317297196309     1.616632953895    -2.925181037624
    H            1.946931589372     2.167092399907    -1.338351605224
    O            0.001885107541     1.521844810258    -1.314974908105
    H           -0.860445825616     1.094766693436    -1.911138440706
    C           -0.019184569429    -0.337087737562     0.350474885726
    CL           0.026415216406    -2.100823252896     0.539121929055
    H            1.034422442460    -0.366745539619    -1.540405832948

*** Psi4 exiting successfully. Buy a developer a beer!
