                               Psi4 1.2.1 release

  ==> Input File <==

--------------------------------------------------------------------------
molecule{
0 1
    C           -0.108047614975    -0.645236287278     0.050653622385
    O           -1.120282379357    -0.619960924724    -0.731156964596
    O            0.225504235194     0.911683533582    -0.083939935327
    H           -0.718435396744     0.657922409419    -0.701049957262
    H            1.355439594890     2.315563620587    -1.044551650979
    C            1.408542471208     1.254452358978    -0.810960003580
    H            1.473574826710     0.670672552934    -1.733348938624
    H            2.273372539821     1.062369399097    -0.177825262264
    F           -0.343773984577    -0.817235337565     1.371280879685
    H            0.812504521273    -1.184591854916    -0.204078075766

}

set{
   basis 6-311++G(d,p)
   freeze_core True
   normal_modes_write True
}

set_num_threads(16)
frequencies('m06-2x')
--------------------------------------------------------------------------

    Molecular point group: c1
  Charge       = 0
  Multiplicity = 1
  Basis Set: 6-311++G(D,P)
    Blend: 6-311++G(D,P)
  Basis Set: (6-311++G(D,P) AUX)
    Blend: AUG-CC-PVTZ-JKFIT
  @DF-RKS Final Energy:  -329.41030081515692
    Total Energy =                       -329.4103008151569156
    Molecular point group: c1
  Basis Set: 6-311++G(D,P)
    Blend: 6-311++G(D,P)
  Basis Set: (6-311++G(D,P) AUX)
    Blend: AUG-CC-PVTZ-JKFIT
  Basis Set: 6-311++G(D,P)
    Blend: 6-311++G(D,P)
  Basis Set: (6-311++G(D,P) AUX)
    Blend: AUG-CC-PVTZ-JKFIT
  @DF-RKS Final Energy:  -329.41030006974995
    Total Energy =                       -329.4103000697499510
  Basis Set: 6-311++G(D,P)
    Blend: 6-311++G(D,P)
  Basis Set: (6-311++G(D,P) AUX)
    Blend: AUG-CC-PVTZ-JKFIT
  Basis Set: 6-311++G(D,P)
    Blend: 6-311++G(D,P)
  @DF-RKS Final Energy:  -329.41029976072826
    Total Energy =                       -329.4102997607282646
  @DF-RKS Final Energy:  -329.41030039115464
    Total Energy =                       -329.4103003911546352
  @DF-RKS Final Energy:  -329.41030050221605
    Total Energy =                       -329.4103005022160460
  @DF-RKS Final Energy:  -329.41030040703464
    Total Energy =                       -329.4103004070346401
  @DF-RKS Final Energy:  -329.41029983231351
    Total Energy =                       -329.4102998323135125
  @DF-RKS Final Energy:  -329.41030045521649
    Total Energy =                       -329.4103004552164862
  @DF-RKS Final Energy:  -329.41030038377056
    Total Energy =                       -329.4103003837705614
  @DF-RKS Final Energy:  -329.41030032006694
    Total Energy =                       -329.4103003200669377
  @DF-RKS Final Energy:  -329.41030065817409
    Total Energy =                       -329.4103006581740942
  @DF-RKS Final Energy:  -329.41030057134532
    Total Energy =                       -329.4103005713453172
  @DF-RKS Final Energy:  -329.41030057144997
    Total Energy =                       -329.4103005714499659
  @DF-RKS Final Energy:  -329.41030026938131
    Total Energy =                       -329.4103002693813096
  @DF-RKS Final Energy:  -329.41030058830898
    Total Energy =                       -329.4103005883089850
  @DF-RKS Final Energy:  -329.41030039690787
    Total Energy =                       -329.4103003969079282
  @DF-RKS Final Energy:  -329.41030061009405
    Total Energy =                       -329.4103006100940547
  @DF-RKS Final Energy:  -329.41030031386134
    Total Energy =                       -329.4103003138613417
  @DF-RKS Final Energy:  -329.41030045348566
    Total Energy =                       -329.4103004534856609
  @DF-RKS Final Energy:  -329.41030010898163
    Total Energy =                       -329.4103001089816303
  @DF-RKS Final Energy:  -329.41029996805133
    Total Energy =                       -329.4102999680513335
  @DF-RKS Final Energy:  -329.41029967184346
    Total Energy =                       -329.4102996718434611
  @DF-RKS Final Energy:  -329.41029934499682
    Total Energy =                       -329.4102993449968153
  @DF-RKS Final Energy:  -329.41029933335375
    Total Energy =                       -329.4102993333537484
  @DF-RKS Final Energy:  -329.41029909653798
    Total Energy =                       -329.4102990965379831
  @DF-RKS Final Energy:  -329.41029728645066
    Total Energy =                       -329.4102972864506569
  @DF-RKS Final Energy:  -329.41029708868462
    Total Energy =                       -329.4102970886846151
  @DF-RKS Final Energy:  -329.41029912023174
    Total Energy =                       -329.4102991202317412
  @DF-RKS Final Energy:  -329.41029906936939
    Total Energy =                       -329.4102990693693869
  @DF-RKS Final Energy:  -329.41029950653422
    Total Energy =                       -329.4102995065342157
  @DF-RKS Final Energy:  -329.41029961982133
    Total Energy =                       -329.4102996198213305
  @DF-RKS Final Energy:  -329.41029772051087
    Total Energy =                       -329.4102977205108687
  @DF-RKS Final Energy:  -329.41029750831666
    Total Energy =                       -329.4102975083166598
  @DF-RKS Final Energy:  -329.41029998267521
    Total Energy =                       -329.4102999826752125
  @DF-RKS Final Energy:  -329.41029988265279
    Total Energy =                       -329.4102998826527937
  @DF-RKS Final Energy:  -329.41030021153512
    Total Energy =                       -329.4103002115351160
  @DF-RKS Final Energy:  -329.41030005740760
    Total Energy =                       -329.4103000574075963
  @DF-RKS Final Energy:  -329.41029818622991
    Total Energy =                       -329.4102981862299089
  Basis Set: (6-311++G(D,P) AUX)
    Blend: AUG-CC-PVTZ-JKFIT
  Basis Set: 6-311++G(D,P)
    Blend: 6-311++G(D,P)
  Basis Set: (6-311++G(D,P) AUX)
    Blend: AUG-CC-PVTZ-JKFIT
  @DF-RKS Final Energy:  -329.41029798012897
    Total Energy =                       -329.4102979801289734
  Basis Set: 6-311++G(D,P)
    Blend: 6-311++G(D,P)
  Basis Set: (6-311++G(D,P) AUX)
    Blend: AUG-CC-PVTZ-JKFIT
    Molecular point group: c1
  Charge       = 0
  Multiplicity = 1
  Basis Set: 6-311++G(D,P)
    Blend: 6-311++G(D,P)
  Basis Set: (6-311++G(D,P) AUX)
    Blend: AUG-CC-PVTZ-JKFIT

    Orbital Energies [Eh]
    ---------------------

    Doubly Occupied:

       1A    -25.250239     2A    -19.702228     3A    -19.602957
       4A    -10.736558     5A    -10.625194     6A     -1.383587
       7A     -1.243480     8A     -1.132853     9A     -0.837850
      10A     -0.763830    11A     -0.659443    12A     -0.646612
      13A     -0.604749    14A     -0.573796    15A     -0.552312
      16A     -0.527040    17A     -0.480365    18A     -0.471914
      19A     -0.448426    20A     -0.372271    21A     -0.367063

  @DF-RKS Final Energy:  -329.41030081533165

   => Energetics <=

    Nuclear Repulsion Energy =            197.5331948817701573
    One-Electron Energy =                -843.9089909982244535
    Two-Electron Energy =                 336.3539463657228907
    DFT Exchange-Correlation Energy =     -19.3884510646003179
    Empirical Dispersion Energy =           0.0000000000000000
    VV10 Nonlocal Energy =                  0.0000000000000000
    Total Energy =                       -329.4103008153316523

  Dipole Moment: [D]
     X:     3.9410      Y:     2.0357      Z:    -1.5608     Total:     4.7023

    Molecular point group: c1

    Geometry (in Angstrom), charge = 0, multiplicity = 1:

       Center              X                  Y                   Z               Mass
    ------------   -----------------  -----------------  -----------------  -----------------
         C           -0.108047614975    -0.645236287278     0.050653622385    12.000000000000
         O           -1.120282379357    -0.619960924724    -0.731156964596    15.994914619560
         O            0.225504235194     0.911683533582    -0.083939935327    15.994914619560
         H           -0.718435396744     0.657922409419    -0.701049957262     1.007825032070
         H            1.355439594890     2.315563620587    -1.044551650979     1.007825032070
         C            1.408542471208     1.254452358978    -0.810960003580    12.000000000000
         H            1.473574826710     0.670672552934    -1.733348938624     1.007825032070
         H            2.273372539821     1.062369399097    -0.177825262264     1.007825032070
         F           -0.343773984577    -0.817235337565     1.371280879685    18.998403224000
         H            0.812504521273    -1.184591854916    -0.204078075766     1.007825032070

  Basis Set: 6-311++G(D,P)
    Blend: 6-311++G(D,P)
  Basis Set: (6-311++G(D,P) AUX)
    Blend: AUG-CC-PVTZ-JKFIT

  -Total Gradient:
     Atom            X                  Y                   Z
    ------   -----------------  -----------------  -----------------
       1        0.000063648845     0.000115531681     0.000066154428
       2       -0.000014677969    -0.000003684136    -0.000028599586
       3       -0.000079983662    -0.000049611802     0.000035582339
       4        0.000003451369     0.000045230353     0.000012567967
       5        0.000006802044    -0.000013505684    -0.000010402278
       6        0.000069614975    -0.000019206870    -0.000053404239
       7       -0.000004001977    -0.000005961894    -0.000006484098
       8        0.000016523326     0.000000966294    -0.000020709555
       9        0.000005761310    -0.000013853344     0.000010600439
      10       -0.000015286843    -0.000018182126    -0.000026311539

  Vibration                       1                   8                   9
  Freq [cm^-1]                1538.3156i           114.2824            205.8383
  Irrep                           A                   A                   A
  Reduced mass [u]              1.1915              3.3293              1.1104
  Force const [mDyne/A]        -1.6612              0.0256              0.0277

  Vibration                       10                  11                  12
  Freq [cm^-1]                 270.9903            361.0034            603.2726
  Irrep                           A                   A                   A
  Reduced mass [u]              3.2921              7.0327              9.3048
  Force const [mDyne/A]         0.1424              0.5400              1.9952

  Vibration                       13                  14                  15
  Freq [cm^-1]                 697.9095            786.3105           1016.4058
  Irrep                           A                   A                   A
  Reduced mass [u]              4.1787              7.2574              1.9525
  Force const [mDyne/A]         1.1992              2.6438              1.1885

  Vibration                       16                  17                  18
  Freq [cm^-1]                1119.8405           1163.5314           1203.0522
  Irrep                           A                   A                   A
  Reduced mass [u]              7.8215              1.5529              1.5231
  Force const [mDyne/A]         5.7790              1.2386              1.2988

  Vibration                       19                  20                  21
  Freq [cm^-1]                1249.9719           1280.7605           1373.5826
  Irrep                           A                   A                   A
  Reduced mass [u]              1.2867              1.2806              1.1925
  Force const [mDyne/A]         1.1845              1.2376              1.3256

  Vibration                       22                  23                  24
  Freq [cm^-1]                1473.1292           1504.0163           1511.1463
  Irrep                           A                   A                   A
  Reduced mass [u]              1.2706              1.0953              1.0513
  Force const [mDyne/A]         1.6245              1.4598              1.4145

  Vibration                       25                  26                  27
  Freq [cm^-1]                1535.9751           2158.6565           3068.5751
  Irrep                           A                   A                   A
  Reduced mass [u]              2.6780              1.0550              1.0379
  Force const [mDyne/A]         3.7225              2.8965              5.7580

  Vibration                       28                  29                  30
  Freq [cm^-1]                3082.5193           3158.4253           3188.7500
  Irrep                           A                   A                   A
  Reduced mass [u]              1.0880              1.1007              1.1075
  Force const [mDyne/A]         6.0911              6.4693              6.6349

  ==> Thermochemistry Components <==

  Entropy, S
    Electronic S            0.000 [cal/(mol K)]        0.000 [J/(mol K)]       0.00000000 [mEh/K] (multiplicity = 1)
    Translational S        39.054 [cal/(mol K)]      163.402 [J/(mol K)]       0.06223639 [mEh/K] (mol. weight = 80.0274 [u], P = 101325.00 [Pa])
    Rotational S           25.546 [cal/(mol K)]      106.885 [J/(mol K)]       0.04071024 [mEh/K] (symmetry no. = 1)
    Vibrational S           9.318 [cal/(mol K)]       38.987 [J/(mol K)]       0.01484945 [mEh/K]
  Total S                  73.918 [cal/(mol K)]      309.274 [J/(mol K)]       0.11779607 [mEh/K]
  Correction S              0.000 [cal/(mol K)]        0.000 [J/(mol K)]       0.00000000 [mEh/K]

  Constant volume heat capacity, Cv
    Electronic Cv           0.000 [cal/(mol K)]        0.000 [J/(mol K)]       0.00000000 [mEh/K]
    Translational Cv        2.981 [cal/(mol K)]       12.472 [J/(mol K)]       0.00475022 [mEh/K]
    Rotational Cv           2.981 [cal/(mol K)]       12.472 [J/(mol K)]       0.00475022 [mEh/K]
    Vibrational Cv         11.385 [cal/(mol K)]       47.635 [J/(mol K)]       0.01814313 [mEh/K]
  Total Cv                 17.347 [cal/(mol K)]       72.578 [J/(mol K)]       0.02764358 [mEh/K]
  Correction Cv             0.000 [cal/(mol K)]        0.000 [J/(mol K)]       0.00000000 [mEh/K]

  Constant pressure heat capacity, Cp
    Electronic Cp           0.000 [cal/(mol K)]        0.000 [J/(mol K)]       0.00000000 [mEh/K]
    Translational Cp        4.968 [cal/(mol K)]       20.786 [J/(mol K)]       0.00791704 [mEh/K]
    Rotational Cp           2.981 [cal/(mol K)]       12.472 [J/(mol K)]       0.00475022 [mEh/K]
    Vibrational Cp         11.385 [cal/(mol K)]       47.635 [J/(mol K)]       0.01814313 [mEh/K]
  Total Cp                 19.334 [cal/(mol K)]       80.893 [J/(mol K)]       0.03081039 [mEh/K]
  Correction Cp             0.000 [cal/(mol K)]        0.000 [J/(mol K)]       0.00000000 [mEh/K]

  ==> Thermochemistry Energy Analysis <==

  Raw electronic energy, E0
  Total E0, Electronic energy at well bottom at 0 [K]                 -329.41030082 [Eh]

  Zero-point energy, ZPE_vib = Sum_i nu_i / 2
    Electronic ZPE          0.000 [kcal/mol]        0.000 [kJ/mol]       0.00000000 [Eh]
    Translational ZPE       0.000 [kcal/mol]        0.000 [kJ/mol]       0.00000000 [Eh]
    Rotational ZPE          0.000 [kcal/mol]        0.000 [kJ/mol]       0.00000000 [Eh]
    Vibrational ZPE        45.929 [kcal/mol]      192.168 [kJ/mol]       0.07319283 [Eh]       16063.967 [cm^-1]
  Correction ZPE           45.929 [kcal/mol]      192.168 [kJ/mol]       0.07319283 [Eh]       16063.967 [cm^-1]
  Total ZPE, Electronic energy at 0 [K]                               -329.33710799 [Eh]

  Thermal Energy, E (includes ZPE)
    Electronic E            0.000 [kcal/mol]        0.000 [kJ/mol]       0.00000000 [Eh]
    Translational E         0.889 [kcal/mol]        3.718 [kJ/mol]       0.00141628 [Eh]
    Rotational E            0.889 [kcal/mol]        3.718 [kJ/mol]       0.00141628 [Eh]
    Vibrational E          47.540 [kcal/mol]      198.909 [kJ/mol]       0.07576041 [Eh]
  Correction E             49.318 [kcal/mol]      206.346 [kJ/mol]       0.07859297 [Eh]
  Total E, Electronic energy at  298.15 [K]                           -329.33170784 [Eh]

  Enthalpy, H_trans = E_trans + k_B * T
    Electronic H            0.000 [kcal/mol]        0.000 [kJ/mol]       0.00000000 [Eh]
    Translational H         1.481 [kcal/mol]        6.197 [kJ/mol]       0.00236046 [Eh]
    Rotational H            0.889 [kcal/mol]        3.718 [kJ/mol]       0.00141628 [Eh]
    Vibrational H          47.540 [kcal/mol]      198.909 [kJ/mol]       0.07576041 [Eh]
  Correction H             49.910 [kcal/mol]      208.825 [kJ/mol]       0.07953716 [Eh]
  Total H, Enthalpy at  298.15 [K]                                    -329.33076366 [Eh]

  Gibbs free energy, G = H - T * S
    Electronic G            0.000 [kcal/mol]        0.000 [kJ/mol]       0.00000000 [Eh]
    Translational G       -10.163 [kcal/mol]      -42.521 [kJ/mol]      -0.01619531 [Eh]
    Rotational G           -6.728 [kcal/mol]      -28.149 [kJ/mol]      -0.01072148 [Eh]
    Vibrational G          44.762 [kcal/mol]      187.285 [kJ/mol]       0.07133305 [Eh]
  Correction G             27.872 [kcal/mol]      116.615 [kJ/mol]       0.04441626 [Eh]
  Total G, Free enthalpy at  298.15 [K]                               -329.36588456 [Eh]

*** Psi4 exiting successfully. Buy a developer a beer!
