                         Program Version 4.1.1  - RELEASE  -
|  1> !UKS B3LYP 3-21G TightSCF KDIIS SOSCF Freq IRC
|  2>
|  3> %irc
|  4>   MaxIter 10000000
|  5>   Scale_Init_Displ 0.01
|  6>   Scale_Displ_SD 0.01
|  7> end
|  8>
|  9> *xyz 0 1
| 10>     C            0.230223016669    -0.361073813614     0.034916906978
| 11>     O           -1.152258456006    -0.154071239465     0.075175394608
| 12>     O            1.048229023912     0.530856179754    -0.061057027549
| 13>     H            0.493185194724    -1.419201899633     0.174977883284
| 14>     H           -1.583388633620    -0.261404487986    -0.814796243518
| 15> *
| 16>
| 17>                          ****END OF INPUT****

CARTESIAN COORDINATES (ANGSTROEM)
---------------------------------
  C      0.230223   -0.361074    0.034917
  O     -1.152258   -0.154071    0.075175
  O      1.048229    0.530856   -0.061057
  H      0.493185   -1.419202    0.174978
  H     -1.583389   -0.261404   -0.814796

 Total Charge           Charge          ....    0
 Multiplicity           Mult            ....    1
 Number of Electrons    NEL             ....   24
 Basis Dimension        Dim             ....   31

ORBITAL ENERGIES
----------------
                 SPIN UP ORBITALS
  NO   OCC          E(Eh)            E(eV)
   0   1.0000     -19.063113      -518.7337
   1   1.0000     -19.053170      -518.4631
   2   1.0000     -10.265462      -279.3374
   3   1.0000      -1.096405       -29.8347
   4   1.0000      -1.023127       -27.8407
   5   1.0000      -0.634559       -17.2672
   6   1.0000      -0.543799       -14.7975
   7   1.0000      -0.452666       -12.3177
   8   1.0000      -0.432305       -11.7636
   9   1.0000      -0.348809        -9.4916
  10   1.0000      -0.302122        -8.2212
  11   1.0000      -0.277176        -7.5423
  12   0.0000      -0.019572        -0.5326
  13   0.0000       0.078462         2.1351
  14   0.0000       0.150835         4.1044
  15   0.0000       0.282217         7.6795
  16   0.0000       0.336115         9.1462

                 SPIN DOWN ORBITALS
  NO   OCC          E(Eh)            E(eV)
   0   1.0000     -19.063113      -518.7337
   1   1.0000     -19.053170      -518.4631
   2   1.0000     -10.265462      -279.3374
   3   1.0000      -1.096405       -29.8347
   4   1.0000      -1.023127       -27.8407
   5   1.0000      -0.634559       -17.2672
   6   1.0000      -0.543799       -14.7975
   7   1.0000      -0.452666       -12.3177
   8   1.0000      -0.432305       -11.7636
   9   1.0000      -0.348809        -9.4916
  10   1.0000      -0.302122        -8.2212
  11   1.0000      -0.277176        -7.5423
  12   0.0000      -0.019572        -0.5326
  13   0.0000       0.078462         2.1351
  14   0.0000       0.150835         4.1044
  15   0.0000       0.282217         7.6795
  16   0.0000       0.336115         9.1462

MULLIKEN ATOMIC CHARGES AND SPIN POPULATIONS
--------------------------------------------
   0 C :    0.411680    0.000000
   1 O :   -0.563480    0.000000
   2 O :   -0.396414    0.000000
   3 H :    0.174406    0.000000
   4 H :    0.373808    0.000000
Sum of atomic charges         :   -0.0000000

LOEWDIN ATOMIC CHARGES AND SPIN POPULATIONS
-------------------------------------------
   0 C :    0.174784    0.000000
   1 O :   -0.319591    0.000000
   2 O :   -0.164174    0.000000
   3 H :    0.044270    0.000000
   4 H :    0.264712    0.000000

  Mayer bond orders larger than 0.1
B(  0-C ,  1-O ) :   0.9726 B(  0-C ,  2-O ) :   1.9342 B(  0-C ,  3-H ) :   0.8148
B(  1-O ,  4-H ) :   0.7931

FINAL SINGLE POINT ENERGY      -188.584980694622

DIPOLE MOMENT
-------------
                                X             Y             Z
Electronic contribution:      0.50944       0.77541      -0.02473
Nuclear contribution   :     -1.02442      -1.57102      -0.60007
                        -----------------------------------------
Total Dipole Moment    :     -0.51498      -0.79561      -0.62480
                        -----------------------------------------
Magnitude (a.u.)       :      1.13515
Magnitude (Debye)      :      2.88533

VIBRATIONAL FREQUENCIES
-----------------------

Scaling factor for frequencies =  1.000000000  (already applied!)

   0:         0.00 cm**-1
   1:         0.00 cm**-1
   2:         0.00 cm**-1
   3:         0.00 cm**-1
   4:         0.00 cm**-1
   5:         0.00 cm**-1
   6:      -616.48 cm**-1 ***imaginary mode***
   7:       658.85 cm**-1
   8:       894.36 cm**-1
   9:      1043.44 cm**-1
  10:      1208.64 cm**-1
  11:      1444.56 cm**-1
  12:      1777.66 cm**-1
  13:      3003.83 cm**-1
  14:      3497.61 cm**-1

IR SPECTRUM
-----------

 Mode    freq (cm**-1)   T**2         TX         TY         TZ
-------------------------------------------------------------------
   7:       658.85   10.782194  ( -0.314947  -3.221830   0.550284)
   8:       894.36  217.193664  (-14.616114   1.591035   1.015612)
   9:      1043.44  137.203849  ( 10.784502  -4.161788   1.891528)
  10:      1208.64    9.686147  (  1.958891   2.053167  -1.278045)
  11:      1444.56    6.885952  ( -1.764871   1.822176  -0.671460)
  12:      1777.66  173.737832  (-11.483374  -6.466189  -0.241547)
  13:      3003.83   96.467039  ( -3.876679   8.930110  -1.300587)
  14:      3497.61   30.303974  ( -3.941037   0.126172  -3.841391)

--------------------------
THERMOCHEMISTRY AT 298.15K
--------------------------

Temperature         ... 298.15 K
Pressure            ... 1.00 atm
Total Mass          ... 46.03 AMU

Throughout the following assumptions are being made:
  (1) The electronic state is orbitally nondegenerate
  (2) There are no thermally accessible electronically excited states
  (3) Hindered rotations indicated by low frequency modes are not
      treated as such but are treated as vibrations and this may
      cause some error
  (4) All equations used are the standard statistical mechanics
      equations for an ideal gas
  (5) All vibrations are strictly harmonic

freq.     658.85  E(vib)   ...       0.08
freq.     894.36  E(vib)   ...       0.03
freq.    1043.44  E(vib)   ...       0.02
freq.    1208.64  E(vib)   ...       0.01
freq.    1444.56  E(vib)   ...       0.00
freq.    1777.66  E(vib)   ...       0.00
freq.    3003.83  E(vib)   ...       0.00
freq.    3497.61  E(vib)   ...       0.00

------------
INNER ENERGY
------------

The inner energy is: U= E(el) + E(ZPE) + E(vib) + E(rot) + E(trans)
    E(el)   - is the total energy from the electronic structure calculation
              = E(kin-el) + E(nuc-el) + E(el-el) + E(nuc-nuc)
    E(ZPE)  - the the zero temperature vibrational energy from the frequency calculation
    E(vib)  - the the finite temperature correction to E(ZPE) due to population
              of excited vibrational states
    E(rot)  - is the rotational thermal energy
    E(trans)- is the translational thermal energy

Summary of contributions to the inner energy U:
Electronic energy                ...   -188.58498069 Eh
Zero point energy                ...      0.03082122 Eh      19.34 kcal/mol
Thermal vibrational correction   ...      0.00024054 Eh       0.15 kcal/mol
Thermal rotational correction    ...      0.00141627 Eh       0.89 kcal/mol
Thermal translational correction ...      0.00141627 Eh       0.89 kcal/mol
-----------------------------------------------------------------------
Total thermal energy                   -188.55108638 Eh

Summary of corrections to the electronic energy:
(perhaps to be used in another calculation)
Total thermal correction                  0.00307309 Eh       1.93 kcal/mol
Non-thermal (ZPE) correction              0.03082122 Eh      19.34 kcal/mol
-----------------------------------------------------------------------
Total correction                          0.03389431 Eh      21.27 kcal/mol

--------
ENTHALPY
--------

The enthalpy is H = U + kB*T
                kB is Boltzmann's constant
Total free energy                 ...   -188.55108638 Eh
Thermal Enthalpy correction       ...      0.00094421 Eh       0.59 kcal/mol
-----------------------------------------------------------------------
Total Enthalpy                    ...   -188.55014218 Eh

Note: Rotational entropy computed according to Herzberg
Infrared and Raman Spectra, Chapter V,1, Van Nostrand Reinhold, 1945
Point Group:  C1, Symmetry Number:   1
Rotational constants in cm-1:     2.631222     0.366454     0.331268

Vibrational entropy computed according to the QRRHO of S. Grimme
Chem.Eur.J. 2012 18 9955

-------
ENTROPY
-------

The entropy contributions are T*S = T*(S(el)+S(vib)+S(rot)+S(trans))
     S(el)   - electronic entropy
     S(vib)  - vibrational entropy
     S(rot)  - rotational entropy
     S(trans)- translational entropy
The entropies will be listed as mutliplied by the temperature to get
units of energy

Electronic entropy                ...      0.00000000 Eh      0.00 kcal/mol
Vibrational entropy               ...      0.00030359 Eh      0.19 kcal/mol
Rotational entropy                ...      0.01004959 Eh      6.31 kcal/mol
Translational entropy             ...      0.01777224 Eh     11.15 kcal/mol
-----------------------------------------------------------------------
Final entropy term                ...      0.02812541 Eh     17.65 kcal/mol

-------------------
GIBBS FREE ENTHALPY
-------------------

The Gibbs free enthalpy is G = H - T*S

Total enthalpy                    ...   -188.55014218 Eh
Total entropy correction          ...     -0.02812541 Eh    -17.65 kcal/mol
-----------------------------------------------------------------------
Final Gibbs free enthalpy         ...   -188.57826759 Eh

For completeness - the Gibbs free enthalpy minus the electronic energy
G-E(el)                           ...      0.00671311 Eh      4.21 kcal/mol

                      ***********************HURRAY********************
                      ***********************HURRAY********************
                             ****ORCA TERMINATED NORMALLY****
TOTAL RUN TIME: 0 days 0 hours 0 minutes 40 seconds 459 msec
