                               Psi4 1.2.1 release

  ==> Input File <==

--------------------------------------------------------------------------
molecule{
0 1
C     -0.438042   -0.749370    0.240485
O     -1.507633   -0.532039   -0.482282
O     -0.147300    0.882268    0.456711
H     -1.083671    0.700208   -0.228661
H      0.887008    2.545001   -0.158340
C      1.033221    1.465294   -0.115158
H      1.214003    1.075283   -1.122448
H      1.884810    1.243748    0.528996
F     -0.056127   -0.381635    2.051663
H     -0.125066   -1.698868   -0.140827
}

set{
   basis 6-311++G(d,p)
   freeze_core True
   opt_type ts
}

set_num_threads(16)
optimize('m06-2x')
--------------------------------------------------------------------------

    Molecular point group: c1
  Charge       = 0
  Multiplicity = 1
  Basis Set: 6-311++G(D,P)
    Blend: 6-311++G(D,P)
  Basis Set: (6-311++G(D,P) AUX)
    Blend: AUG-CC-PVTZ-JKFIT
  @DF-RKS Final Energy:  -329.26657902693279
    Total Energy =                       -329.2665790269327886
    Molecular point group: c1
  Basis Set: 6-311++G(D,P)
    Blend: 6-311++G(D,P)
  Basis Set: (6-311++G(D,P) AUX)
    Blend: AUG-CC-PVTZ-JKFIT
  Basis Set: 6-311++G(D,P)
    Blend: 6-311++G(D,P)
  Basis Set: (6-311++G(D,P) AUX)
    Blend: AUG-CC-PVTZ-JKFIT
  @DF-RKS Final Energy:  -329.31323620314379
    Total Energy =                       -329.3132362031437879
  Basis Set: 6-311++G(D,P)
    Blend: 6-311++G(D,P)
  Basis Set: (6-311++G(D,P) AUX)
    Blend: AUG-CC-PVTZ-JKFIT
  Basis Set: 6-311++G(D,P)
    Blend: 6-311++G(D,P)
  @DF-RKS Final Energy:  -329.34516097415866
    Total Energy =                       -329.3451609741586594
  @DF-RKS Final Energy:  -329.37553008760472
    Total Energy =                       -329.3755300876047158
  @DF-RKS Final Energy:  -329.40132337756756
    Total Energy =                       -329.4013233775675644
  @DF-RKS Final Energy:  -329.40784696651883
    Total Energy =                       -329.4078469665188322
  @DF-RKS Final Energy:  -329.41193668564642
    Total Energy =                       -329.4119366856464239
  @DF-RKS Final Energy:  -329.40627686955071
    Total Energy =                       -329.4062768695507657
  @DF-RKS Final Energy:  -329.40809045412476
    Total Energy =                       -329.4080904541247605
  @DF-RKS Final Energy:  -329.41007549301372
    Total Energy =                       -329.4100754930137214
  @DF-RKS Final Energy:  -329.40842445945486
    Total Energy =                       -329.4084244594548636
  @DF-RKS Final Energy:  -329.40892470365611
    Total Energy =                       -329.4089247036561119
  @DF-RKS Final Energy:  -329.40820091309968
    Total Energy =                       -329.4082009130996767
  @DF-RKS Final Energy:  -329.41003465312986
    Total Energy =                       -329.4100346531299124
  @DF-RKS Final Energy:  -329.40958549866082
    Total Energy =                       -329.4095854986608174
  @DF-RKS Final Energy:  -329.41016477457083
    Total Energy =                       -329.4101647745708306
  @DF-RKS Final Energy:  -329.41004501231055
    Total Energy =                       -329.4100450123105475
  @DF-RKS Final Energy:  -329.41027012898604
    Total Energy =                       -329.4102701289860420
  @DF-RKS Final Energy:  -329.41029376230796
    Total Energy =                       -329.4102937623079583
  @DF-RKS Final Energy:  -329.41029964459818
    Total Energy =                       -329.4102996445981830
  Basis Set: (6-311++G(D,P) AUX)
    Blend: AUG-CC-PVTZ-JKFIT
  Basis Set: 6-311++G(D,P)
    Blend: 6-311++G(D,P)
  Basis Set: (6-311++G(D,P) AUX)
    Blend: AUG-CC-PVTZ-JKFIT
  @DF-RKS Final Energy:  -329.41030077259484
    Total Energy =                       -329.4103007725948373
  Basis Set: 6-311++G(D,P)
    Blend: 6-311++G(D,P)
  Basis Set: (6-311++G(D,P) AUX)
    Blend: AUG-CC-PVTZ-JKFIT
  Charge       = 0
  Multiplicity = 1
  Basis Set: 6-311++G(D,P)
    Blend: 6-311++G(D,P)
  Basis Set: (6-311++G(D,P) AUX)
    Blend: AUG-CC-PVTZ-JKFIT

    Orbital Energies [Eh]
    ---------------------

    Doubly Occupied:

       1A    -25.250239     2A    -19.702228     3A    -19.602957
       4A    -10.736558     5A    -10.625194     6A     -1.383587
       7A     -1.243480     8A     -1.132853     9A     -0.837850
      10A     -0.763830    11A     -0.659443    12A     -0.646612
      13A     -0.604749    14A     -0.573796    15A     -0.552312
      16A     -0.527040    17A     -0.480365    18A     -0.471914
      19A     -0.448426    20A     -0.372271    21A     -0.367063

  @DF-RKS Final Energy:  -329.41030081532716

   => Energetics <=

    Nuclear Repulsion Energy =            197.5331948817719194
    One-Electron Energy =                -843.9089917240811474
    Two-Electron Energy =                 336.3539471331214372
    DFT Exchange-Correlation Energy =     -19.3884511061393781
    Empirical Dispersion Energy =           0.0000000000000000
    VV10 Nonlocal Energy =                  0.0000000000000000
    Total Energy =                       -329.4103008153271617

  Dipole Moment: [D]
     X:     3.9410      Y:     2.0357      Z:    -1.5608     Total:     4.7023

    Molecular point group: c1
  Basis Set: 6-311++G(D,P)
    Blend: 6-311++G(D,P)
  Basis Set: (6-311++G(D,P) AUX)
    Blend: AUG-CC-PVTZ-JKFIT

  -Total Gradient:
     Atom            X                  Y                   Z
    ------   -----------------  -----------------  -----------------
       1        0.000063637321     0.000115488123     0.000066165202
       2       -0.000014628840    -0.000003657083    -0.000028574413
       3       -0.000079992872    -0.000049640849     0.000035557889
       4        0.000003447329     0.000045219046     0.000012585597
       5        0.000006803797    -0.000013560271    -0.000010388617
       6        0.000069680637    -0.000019178717    -0.000053431119
       7       -0.000004008523    -0.000005934190    -0.000006436890
       8        0.000016470754     0.000000977212    -0.000020743734
       9        0.000005775279    -0.000013838549     0.000010559034
      10       -0.000015333455    -0.000018152237    -0.000026299088

  **** Optimization is complete! (in 22 steps) ****
    Final optimized geometry and variables:
    Molecular point group: c1

    Geometry (in Angstrom), charge = 0, multiplicity = 1:

    C           -0.108047614975    -0.645236287278     0.050653622385
    O           -1.120282379357    -0.619960924724    -0.731156964596
    O            0.225504235194     0.911683533582    -0.083939935327
    H           -0.718435396744     0.657922409419    -0.701049957262
    H            1.355439594890     2.315563620587    -1.044551650979
    C            1.408542471208     1.254452358978    -0.810960003580
    H            1.473574826710     0.670672552934    -1.733348938624
    H            2.273372539821     1.062369399097    -0.177825262264
    F           -0.343773984577    -0.817235337565     1.371280879685
    H            0.812504521273    -1.184591854916    -0.204078075766

*** Psi4 exiting successfully. Buy a developer a beer!
