                               Psi4 1.2.1 release

  ==> Input File <==

--------------------------------------------------------------------------
molecule{
0 1
 N  -0.9212862016   0.2426167092   0.5919490556
 N   1.3937572257  -0.2598049576  -0.0333292051
 O   0.5313915150  -0.8600141985  -0.8741478520
 C  -0.9374945439  -0.6165350072  -0.3631641670
 O  -1.7079703465  -1.2838484964  -1.0001613920
 C   0.7280376494   1.9429916745  -0.8859546938
 C   1.9145706569  -1.1443581281   0.9946128356
 H   1.0758410188  -1.4655957906   1.6131569551
 H   2.3699591919  -1.9996563756   0.5048508128
 H   2.6527357465  -0.6129868592   1.5891524340
 C  -2.2114750416   0.6712669187   1.0915356359
 H  -3.0228756920   0.0891213561   0.6472964044
 H  -2.2537464013   0.5632990528   2.1762285376
 H  -2.3846517311   1.7267248678   0.8614878303
 C   1.2190338205   1.0069292021   0.1508177612
 H   0.2531976761   1.4128634817  -1.7042302426
 H   0.0233823665   2.6395548385  -0.4377973746
 H   1.5826575837   2.5155197173  -1.2579510805
 H   1.7109845070   1.4124339945   1.0280247451

}

set{
   basis 6-31+G(d)
   freeze_core True
   opt_type ts
}

optimize('mp2')
--------------------------------------------------------------------------

    Molecular point group: c1
  Charge       = 0
  Multiplicity = 1
  Basis Set: 6-31+G(D)
    Blend: 6-31+G(D)
  Basis Set: (6-31+G(D) AUX)
    Blend: HEAVY-AUG-CC-PVDZ-JKFIT
  @DF-RHF Final Energy:  -453.66560315791759
    Total Energy =                       -453.6656031579176442
  Basis Set: (6-31+G(D) AUX)
    Blend: HEAVY-AUG-CC-PVDZ-RI
    Molecular point group: c1
  Basis Set: 6-31+G(D)
    Blend: 6-31+G(D)
  Basis Set: (6-31+G(D) AUX)
    Blend: HEAVY-AUG-CC-PVDZ-JKFIT
  Basis Set: (6-31+G(D) AUX)
    Blend: HEAVY-AUG-CC-PVDZ-JKFIT
	 Reference Energy          =    -453.6656031579175874 [Eh]
	 Singles Energy            =      -0.0000000000000001 [Eh]
	 Same-Spin Energy          =      -0.3598052449365477 [Eh]
	 Opposite-Spin Energy      =      -0.9960732735172031 [Eh]
	 Correlation Energy        =      -1.3558785184537507 [Eh]
	 Total Energy              =    -455.0214816763713657 [Eh]
	 SCS Total Energy          =    -454.9808261677837322 [Eh]
  @DF-RHF Final Energy:  -453.66068064560989
    Total Energy =                       -453.6606806456098866
  @DF-RHF Final Energy:  -453.65684362262027
    Total Energy =                       -453.6568436226202721
  @DF-RHF Final Energy:  -453.65519122237595
    Total Energy =                       -453.6551912223759473
  @DF-RHF Final Energy:  -453.65295517594450
    Total Energy =                       -453.6529551759444985
  @DF-RHF Final Energy:  -453.65876596160086
    Total Energy =                       -453.6587659616009205
  @DF-RHF Final Energy:  -453.65980294668799
    Total Energy =                       -453.6598029466880462
  @DF-RHF Final Energy:  -453.65738405982245
    Total Energy =                       -453.6573840598224479
  @DF-RHF Final Energy:  -453.65796240106221
    Total Energy =                       -453.6579624010622638
  @DF-RHF Final Energy:  -453.65978537380846
    Total Energy =                       -453.6597853738084041
  @DF-RHF Final Energy:  -453.65597572897912
    Total Energy =                       -453.6559757289791150
  @DF-RHF Final Energy:  -453.65906706434475
    Total Energy =                       -453.6590670643447538
  @DF-RHF Final Energy:  -453.65882212755292
    Total Energy =                       -453.6588221275528667
  @DF-RHF Final Energy:  -453.65834012926433
    Total Energy =                       -453.6583401292643885
  @DF-RHF Final Energy:  -453.65835864688404
    Total Energy =                       -453.6583586468840394
  @DF-RHF Final Energy:  -453.65831951980851
    Total Energy =                       -453.6583195198085150
  @DF-RHF Final Energy:  -453.65833170443437
    Total Energy =                       -453.6583317044343175
  Charge       = 0
  Multiplicity = 1
  Basis Set: 6-31+G(D)
    Blend: 6-31+G(D)
  Basis Set: (6-31+G(D) AUX)
    Blend: HEAVY-AUG-CC-PVDZ-JKFIT

    Orbital Energies [Eh]
    ---------------------

    Doubly Occupied:

       1A    -20.612253     2A    -20.522966     3A    -15.698884
       4A    -15.532956     5A    -11.382138     6A    -11.377359
       7A    -11.293843     8A    -11.267912     9A    -11.242603
      10A     -1.468325    11A     -1.357775    12A     -1.207758
      13A     -1.190519    14A     -1.074836    15A     -0.975229
      16A     -0.929251    17A     -0.835587    18A     -0.749842
      19A     -0.722921    20A     -0.695172    21A     -0.671866
      22A     -0.627952    23A     -0.621090    24A     -0.610236
      25A     -0.593305    26A     -0.587431    27A     -0.584960
      28A     -0.569660    29A     -0.541715    30A     -0.534157
      31A     -0.491047    32A     -0.463586    33A     -0.442674
      34A     -0.372869    35A     -0.346826

  @DF-RHF Final Energy:  -453.65831456209378

   => Energetics <=

    Nuclear Repulsion Energy =            485.3745531415342498
    One-Electron Energy =               -1581.6707294569648639
    Two-Electron Energy =                 642.6378617533367787
    Total Energy =                       -453.6583145620937785

  Dipole Moment: [D]
     X:     5.5895      Y:     4.6963      Z:     3.3893     Total:     8.0489

  Basis Set: (6-31+G(D) AUX)
    Blend: HEAVY-AUG-CC-PVDZ-RI
    Molecular point group: c1
  Basis Set: 6-31+G(D)
    Blend: 6-31+G(D)
  Basis Set: (6-31+G(D) AUX)
    Blend: HEAVY-AUG-CC-PVDZ-JKFIT
  Basis Set: (6-31+G(D) AUX)
    Blend: HEAVY-AUG-CC-PVDZ-JKFIT
	 Reference Energy          =    -453.6583145620937785 [Eh]
	 Singles Energy            =      -0.0000000000000000 [Eh]
	 Same-Spin Energy          =      -0.3623056285359527 [Eh]
	 Opposite-Spin Energy      =      -1.0035607073638177 [Eh]
	 Correlation Energy        =      -1.3658663358997705 [Eh]
	 Total Energy              =    -455.0241808979935740 [Eh]

	 ================> DF-SCS-MP2 Energies <==================
	-----------------------------------------------------------
	 SCS Same-Spin Scale       =       0.3333333333333333 [-]
	 SCS Opposite-Spin Scale   =       1.2000000000000000 [-]
	 SCS Same-Spin Energy      =      -0.1207685428453176 [Eh]
	 SCS Opposite-Spin Energy  =      -1.2042728488365813 [Eh]
	 SCS Correlation Energy    =      -1.3250413916818988 [Eh]
	 SCS Total Energy          =    -454.9833559537756855 [Eh]
	-----------------------------------------------------------

  -Total Gradient:
     Atom            X                  Y                   Z
    ------   -----------------  -----------------  -----------------
       1        0.000032218411     0.000045660553     0.000017408677
       2        0.000044255299     0.000075067175     0.000111800888
       3       -0.000289662727    -0.000003526350    -0.000050907696
       4        0.000265736955    -0.000067274081    -0.000020126421
       5       -0.000093686913    -0.000035673555    -0.000047938990
       6        0.000046257956    -0.000007588417    -0.000007390278
       7        0.000034035855    -0.000018749390     0.000009148482
       8        0.000002232237     0.000002324861    -0.000012280041
       9        0.000007617088     0.000003634416     0.000000450646
      10       -0.000001299200    -0.000001191060     0.000005285650
      11       -0.000099657316     0.000019723448     0.000009770458
      12        0.000034903766     0.000001582256    -0.000014443893
      13        0.000021550620    -0.000020679339    -0.000019474448
      14        0.000008348035    -0.000013708387     0.000008141153
      15       -0.000011448275     0.000042856444     0.000013137177
      16       -0.000020512399    -0.000006576837    -0.000002059908
      17        0.000016220773    -0.000004226559     0.000009430561
      18        0.000003313135    -0.000016744731    -0.000009127534
      19       -0.000000423296     0.000005089554    -0.000000824486

  **** Optimization is complete! (in 18 steps) ****
    Final optimized geometry and variables:
    Molecular point group: c1

    Geometry (in Angstrom), charge = 0, multiplicity = 1:

    N           -0.890645920780     0.312549809507     0.643696794401
    N            1.422552498418    -0.232204527187    -0.000555956041
    O            0.563133779579    -0.848655057895    -0.856851204860
    C           -0.961439798960    -0.568522730575    -0.301554646328
    O           -1.750348575007    -1.260764861648    -0.925483229825
    C            0.747644955407     1.969269375561    -0.882365557536
    C            1.942725085620    -1.114610435911     1.039346944681
    H            1.098824089282    -1.448820926807     1.649992097832
    H            2.415153623976    -1.963402505049     0.545653410686
    H            2.672131469582    -0.569150222186     1.640411122607
    C           -2.172767089482     0.805375255022     1.140879300779
    H           -2.939824112904     0.022022073505     1.096107667602
    H           -2.051842421571     1.131841506946     2.176662602510
    H           -2.522583313952     1.659364495864     0.545909386265
    C            1.211545136145     1.043869476171     0.184394803385
    H            0.228534512952     1.434380239458    -1.676329288278
    H            0.085223315915     2.721512307926    -0.448488145827
    H            1.623535960547     2.485194284190    -1.299771982414
    H            1.701339847474     1.463123112451     1.062367247769

*** Psi4 exiting successfully. Buy a developer a beer!
