                               Psi4 1.2.1 release

  ==> Input File <==

--------------------------------------------------------------------------
molecule{
0 1
 N  -0.9212862016   0.2426167092   0.5919490556
 N   1.3937572257  -0.2598049576  -0.0333292051
 O   0.5313915150  -0.8600141985  -0.8741478520
 C  -0.9374945439  -0.6165350072  -0.3631641670
 O  -1.7079703465  -1.2838484964  -1.0001613920
 C   0.7280376494   1.9429916745  -0.8859546938
 C   1.9145706569  -1.1443581281   0.9946128356
 H   1.0758410188  -1.4655957906   1.6131569551
 H   2.3699591919  -1.9996563756   0.5048508128
 H   2.6527357465  -0.6129868592   1.5891524340
 C  -2.2114750416   0.6712669187   1.0915356359
 H  -3.0228756920   0.0891213561   0.6472964044
 H  -2.2537464013   0.5632990528   2.1762285376
 H  -2.3846517311   1.7267248678   0.8614878303
 C   1.2190338205   1.0069292021   0.1508177612
 H   0.2531976761   1.4128634817  -1.7042302426
 H   0.0233823665   2.6395548385  -0.4377973746
 H   1.5826575837   2.5155197173  -1.2579510805
 H   1.7109845070   1.4124339945   1.0280247451

}

set{
   basis 6-31+G(d)
   freeze_core True
   opt_type ts
}

set_num_threads(24)
optimize('m06-2x')
--------------------------------------------------------------------------

    Molecular point group: c1
  Charge       = 0
  Multiplicity = 1
  Basis Set: 6-31+G(D)
    Blend: 6-31+G(D)
  Basis Set: (6-31+G(D) AUX)
    Blend: HEAVY-AUG-CC-PVDZ-JKFIT
  @DF-RKS Final Energy:  -456.20833095088818
    Total Energy =                       -456.2083309508881257
    Molecular point group: c1
  Basis Set: 6-31+G(D)
    Blend: 6-31+G(D)
  Basis Set: (6-31+G(D) AUX)
    Blend: HEAVY-AUG-CC-PVDZ-JKFIT
  Basis Set: 6-31+G(D)
    Blend: 6-31+G(D)
  Basis Set: (6-31+G(D) AUX)
    Blend: HEAVY-AUG-CC-PVDZ-JKFIT
  @DF-RKS Final Energy:  -456.20870928911114
    Total Energy =                       -456.2087092891111979
  Basis Set: 6-31+G(D)
    Blend: 6-31+G(D)
  Basis Set: (6-31+G(D) AUX)
    Blend: HEAVY-AUG-CC-PVDZ-JKFIT
  Basis Set: 6-31+G(D)
    Blend: 6-31+G(D)
  @DF-RKS Final Energy:  -456.20858031966890
    Total Energy =                       -456.2085803196688403
  @DF-RKS Final Energy:  -456.20815785117327
    Total Energy =                       -456.2081578511732118
  @DF-RKS Final Energy:  -456.20870576058610
    Total Energy =                       -456.2087057605860991
  @DF-RKS Final Energy:  -456.20778042084424
    Total Energy =                       -456.2077804208441307
  @DF-RKS Final Energy:  -456.20787728241731
    Total Energy =                       -456.2078772824173711
  @DF-RKS Final Energy:  -456.20788893242741
    Total Energy =                       -456.2078889324273518
  @DF-RKS Final Energy:  -456.20832575971878
    Total Energy =                       -456.2083257597187185
  @DF-RKS Final Energy:  -456.20865264563804
    Total Energy =                       -456.2086526456380398
  @DF-RKS Final Energy:  -456.20870867584318
    Total Energy =                       -456.2087086758431838
  @DF-RKS Final Energy:  -456.20696879881461
    Total Energy =                       -456.2069687988146143
  @DF-RKS Final Energy:  -456.20845238787507
    Total Energy =                       -456.2084523878750133
  @DF-RKS Final Energy:  -456.20871675236901
    Total Energy =                       -456.2087167523690141
  @DF-RKS Final Energy:  -456.20749448058768
    Total Energy =                       -456.2074944805876271
  @DF-RKS Final Energy:  -456.20870954346913
    Total Energy =                       -456.2087095434691264
  @DF-RKS Final Energy:  -456.20873720010474
    Total Energy =                       -456.2087372001047925
  @DF-RKS Final Energy:  -456.20822381961312
    Total Energy =                       -456.2082238196131811
  @DF-RKS Final Energy:  -456.20875781858956
    Total Energy =                       -456.2087578185895609
  @DF-RKS Final Energy:  -456.20874470411644
    Total Energy =                       -456.2087447041164410
  @DF-RKS Final Energy:  -456.20876002356653
    Total Energy =                       -456.2087600235665263
  Basis Set: (6-31+G(D) AUX)
    Blend: HEAVY-AUG-CC-PVDZ-JKFIT
  Basis Set: 6-31+G(D)
    Blend: 6-31+G(D)
  Basis Set: (6-31+G(D) AUX)
    Blend: HEAVY-AUG-CC-PVDZ-JKFIT
  @DF-RKS Final Energy:  -456.20876186905150
    Total Energy =                       -456.2087618690515001
  Basis Set: 6-31+G(D)
    Blend: 6-31+G(D)
  Basis Set: (6-31+G(D) AUX)
    Blend: HEAVY-AUG-CC-PVDZ-JKFIT
  Charge       = 0
  Multiplicity = 1
  Basis Set: 6-31+G(D)
    Blend: 6-31+G(D)
  Basis Set: (6-31+G(D) AUX)
    Blend: HEAVY-AUG-CC-PVDZ-JKFIT

    Orbital Energies [Eh]
    ---------------------

    Doubly Occupied:

       1A    -19.698151     2A    -19.594097     3A    -14.904990
       4A    -14.723253     5A    -10.675960     6A    -10.657231
       7A    -10.615241     8A    -10.580850     9A    -10.552534
      10A     -1.267777    11A     -1.138987    12A     -1.027889
      13A     -0.984718    14A     -0.909723    15A     -0.824581
      16A     -0.776167    17A     -0.717336    18A     -0.641350
      19A     -0.626673    20A     -0.599560    21A     -0.557618
      22A     -0.533503    23A     -0.527050    24A     -0.505906
      25A     -0.498710    26A     -0.496315    27A     -0.491257
      28A     -0.477076    29A     -0.451820    30A     -0.444158
      31A     -0.403687    32A     -0.375494    33A     -0.359303
      34A     -0.294306    35A     -0.273067

  @DF-RKS Final Energy:  -456.20876141159374

   => Energetics <=

    Nuclear Repulsion Energy =            488.3765037688580151
    One-Electron Energy =               -1588.2176269015724301
    Two-Electron Energy =                 673.3368925910905318
    DFT Exchange-Correlation Energy =     -29.7045308699697266
    Empirical Dispersion Energy =           0.0000000000000000
    VV10 Nonlocal Energy =                  0.0000000000000000
    Total Energy =                       -456.2087614115937413

  Dipole Moment: [D]
     X:     5.2543      Y:     4.0797      Z:     3.6741     Total:     7.5994

    Molecular point group: c1
  Basis Set: 6-31+G(D)
    Blend: 6-31+G(D)
  Basis Set: (6-31+G(D) AUX)
    Blend: HEAVY-AUG-CC-PVDZ-JKFIT

  -Total Gradient:
     Atom            X                  Y                   Z
    ------   -----------------  -----------------  -----------------
       1        0.000040712293    -0.000015621309    -0.000031893871
       2       -0.000086756721    -0.000034878519    -0.000065659058
       3        0.000275181620     0.000045192268    -0.000041152726
       4       -0.000428010648    -0.000008321559     0.000090205373
       5        0.000086660490     0.000054250669     0.000037201722
       6       -0.000001348314     0.000001099647     0.000021981975
       7        0.000001676409    -0.000013751449     0.000003725611
       8       -0.000019264206    -0.000011386841    -0.000005370043
       9       -0.000018144695    -0.000019745535    -0.000016991709
      10        0.000001486902    -0.000019126728    -0.000005568088
      11        0.000194840301    -0.000026162688    -0.000025000792
      12       -0.000128402021    -0.000194794259     0.000002715139
      13        0.000043470238     0.000137514074     0.000204212145
      14       -0.000106223842     0.000185805117    -0.000187091980
      15        0.000004625069    -0.000030131125    -0.000007072810
      16       -0.000006603431     0.000006530028    -0.000004197785
      17        0.000005462003     0.000018793014     0.000013486475
      18        0.000014755292     0.000006712176    -0.000010722531
      19        0.000013313740    -0.000005041997    -0.000000867897

  **** Optimization is complete! (in 23 steps) ****
    Final optimized geometry and variables:
    Molecular point group: c1

    Geometry (in Angstrom), charge = 0, multiplicity = 1:

    N           -0.973522792901     0.200462512179     0.584594887409
    N            1.415613427256    -0.122105903715     0.111311600751
    O            0.653098557007    -0.733101806966    -0.821195067487
    C           -0.849724477232    -0.610993997377    -0.413089844282
    O           -1.538067118707    -1.295608923986    -1.137114186781
    C            0.671671312169     2.080945712604    -0.701450981713
    C            1.924029064067    -1.028463608556     1.130755575096
    H            1.065841281248    -1.441001360253     1.669984534131
    H            2.474852995770    -1.823448563536     0.628690605011
    H            2.581853824029    -0.480896758523     1.806716635894
    C           -2.341013104663     0.496050956150     0.967466981268
    H           -2.959908218256    -0.411174081330     0.974214995267
    H           -2.351858871230     0.937907602591     1.967546805544
    H           -2.809577714244     1.207272035813     0.271750661585
    C            1.153686384299     1.128656626822     0.332622026097
    H            0.268005702844     1.558622822448    -1.567418310453
    H           -0.096755441838     2.723748691745    -0.267773158209
    H            1.516956098531     2.711639810947    -1.006965033045
    H            1.561381434758     1.523889032007     1.260869415077

*** Psi4 exiting successfully. Buy a developer a beer!
