                               Psi4 1.2.1 release

  ==> Input File <==

--------------------------------------------------------------------------
molecule{
0 1
    C           -0.185114839068    -1.002440288444     0.212164275656
    O           -1.195906128921    -0.785329963826    -0.581486258520
    H           -0.372430959452    -1.387591664993     1.222064929873
    H            0.765146042402    -1.361098193307    -0.215437356320
    H            1.190086881801     2.220329143677    -0.097656414572
    C            1.281909007356     1.135439298381    -0.095807387788
    H            1.403809863138     0.768530080675    -1.119129706079
    H            2.137905808347     0.844794785632     0.511433014177
    O            0.099703943024     0.588170584466     0.488577911428
    H           -0.786333714816     0.460501847375    -0.212193106817

}

set{
   basis 6-311++G(d,p)
   freeze_core True
   normal_modes_write True
}

set_num_threads(32)
frequencies('m06-2x')
--------------------------------------------------------------------------

    Molecular point group: c1
  Charge       = 0
  Multiplicity = 1
  Basis Set: 6-311++G(D,P)
    Blend: 6-311++G(D,P)
  Basis Set: (6-311++G(D,P) AUX)
    Blend: AUG-CC-PVTZ-JKFIT
  @DF-RKS Final Energy:  -230.14593004841163
    Total Energy =                       -230.1459300484116284
    Molecular point group: c1
  Basis Set: 6-311++G(D,P)
    Blend: 6-311++G(D,P)
  Basis Set: (6-311++G(D,P) AUX)
    Blend: AUG-CC-PVTZ-JKFIT
  Basis Set: 6-311++G(D,P)
    Blend: 6-311++G(D,P)
  Basis Set: (6-311++G(D,P) AUX)
    Blend: AUG-CC-PVTZ-JKFIT
  @DF-RKS Final Energy:  -230.14592833940742
    Total Energy =                       -230.1459283394074191
  Basis Set: 6-311++G(D,P)
    Blend: 6-311++G(D,P)
  Basis Set: (6-311++G(D,P) AUX)
    Blend: AUG-CC-PVTZ-JKFIT
  Basis Set: 6-311++G(D,P)
    Blend: 6-311++G(D,P)
  @DF-RKS Final Energy:  -230.14592991228309
    Total Energy =                       -230.1459299122830657
  @DF-RKS Final Energy:  -230.14592937141532
    Total Energy =                       -230.1459293714153205
  @DF-RKS Final Energy:  -230.14592991488246
    Total Energy =                       -230.1459299148824584
  @DF-RKS Final Energy:  -230.14592831893017
    Total Energy =                       -230.1459283189301743
  @DF-RKS Final Energy:  -230.14592955024315
    Total Energy =                       -230.1459295502431530
  @DF-RKS Final Energy:  -230.14592931447766
    Total Energy =                       -230.1459293144776552
  @DF-RKS Final Energy:  -230.14592999406281
    Total Energy =                       -230.1459299940628114
  @DF-RKS Final Energy:  -230.14592999185291
    Total Energy =                       -230.1459299918529098
  @DF-RKS Final Energy:  -230.14592884272477
    Total Energy =                       -230.1459288427247714
  @DF-RKS Final Energy:  -230.14592857885162
    Total Energy =                       -230.1459285788516240
  @DF-RKS Final Energy:  -230.14593027455061
    Total Energy =                       -230.1459302745506079
  @DF-RKS Final Energy:  -230.14592903601249
    Total Energy =                       -230.1459290360124896
  @DF-RKS Final Energy:  -230.14592922968339
    Total Energy =                       -230.1459292296833894
  @DF-RKS Final Energy:  -230.14592911409042
    Total Energy =                       -230.1459291140904213
  @DF-RKS Final Energy:  -230.14592852872255
    Total Energy =                       -230.1459285287225498
  @DF-RKS Final Energy:  -230.14592774735971
    Total Energy =                       -230.1459277473597069
  @DF-RKS Final Energy:  -230.14592694314845
    Total Energy =                       -230.1459269431484529
  @DF-RKS Final Energy:  -230.14592754772673
    Total Energy =                       -230.1459275477267283
  @DF-RKS Final Energy:  -230.14592873087324
    Total Energy =                       -230.1459287308732371
  @DF-RKS Final Energy:  -230.14592918464263
    Total Energy =                       -230.1459291846426254
  @DF-RKS Final Energy:  -230.14592891403964
    Total Energy =                       -230.1459289140396436
  @DF-RKS Final Energy:  -230.14592825793693
    Total Energy =                       -230.1459282579369301
  @DF-RKS Final Energy:  -230.14592915932974
    Total Energy =                       -230.1459291593297394
  @DF-RKS Final Energy:  -230.14592796598404
    Total Energy =                       -230.1459279659840433
  @DF-RKS Final Energy:  -230.14592744331904
    Total Energy =                       -230.1459274433190387
  @DF-RKS Final Energy:  -230.14592854941480
    Total Energy =                       -230.1459285494148048
  @DF-RKS Final Energy:  -230.14592887168794
    Total Energy =                       -230.1459288716879428
  @DF-RKS Final Energy:  -230.14593012659867
    Total Energy =                       -230.1459301265986994
  @DF-RKS Final Energy:  -230.14592809340161
    Total Energy =                       -230.1459280934016078
  @DF-RKS Final Energy:  -230.14592671861794
    Total Energy =                       -230.1459267186179432
  @DF-RKS Final Energy:  -230.14592672152165
    Total Energy =                       -230.1459267215216471
  @DF-RKS Final Energy:  -230.14592732826611
    Total Energy =                       -230.1459273282661400
  @DF-RKS Final Energy:  -230.14592737516756
    Total Energy =                       -230.1459273751675596
  @DF-RKS Final Energy:  -230.14592950173494
    Total Energy =                       -230.1459295017349405
  @DF-RKS Final Energy:  -230.14592881622022
    Total Energy =                       -230.1459288162202199
  @DF-RKS Final Energy:  -230.14592887608023
    Total Energy =                       -230.1459288760802337
  Basis Set: (6-311++G(D,P) AUX)
    Blend: AUG-CC-PVTZ-JKFIT
  Basis Set: 6-311++G(D,P)
    Blend: 6-311++G(D,P)
  Basis Set: (6-311++G(D,P) AUX)
    Blend: AUG-CC-PVTZ-JKFIT
  @DF-RKS Final Energy:  -230.14593008314444
    Total Energy =                       -230.1459300831444352
  Basis Set: 6-311++G(D,P)
    Blend: 6-311++G(D,P)
  Basis Set: (6-311++G(D,P) AUX)
    Blend: AUG-CC-PVTZ-JKFIT
    Molecular point group: c1
  Charge       = 0
  Multiplicity = 1
  Basis Set: 6-311++G(D,P)
    Blend: 6-311++G(D,P)
  Basis Set: (6-311++G(D,P) AUX)
    Blend: AUG-CC-PVTZ-JKFIT

    Orbital Energies [Eh]
    ---------------------

    Doubly Occupied:

       1A    -19.687434     2A    -19.574571     3A    -10.650707
       4A    -10.613290     5A     -1.224623     6A     -1.100705
       7A     -0.821400     8A     -0.741042     9A     -0.635312
      10A     -0.587613    11A     -0.562532    12A     -0.515872
      13A     -0.488272    14A     -0.452191    15A     -0.444535
      16A     -0.345921    17A     -0.317949

  @DF-RKS Final Energy:  -230.14593004824533

   => Energetics <=

    Nuclear Repulsion Energy =            134.6807796249904357
    One-Electron Energy =                -580.1290118172659049
    Two-Electron Energy =                 229.8527954753959079
    DFT Exchange-Correlation Energy =     -14.5504933313658107
    Empirical Dispersion Energy =           0.0000000000000000
    VV10 Nonlocal Energy =                  0.0000000000000000
    Total Energy =                       -230.1459300482453330

  Dipole Moment: [D]
     X:     3.6698      Y:     1.5021      Z:     0.8790     Total:     4.0616

    Molecular point group: c1

    Geometry (in Angstrom), charge = 0, multiplicity = 1:

       Center              X                  Y                   Z               Mass
    ------------   -----------------  -----------------  -----------------  -----------------
         C           -0.185114839068    -1.002440288444     0.212164275656    12.000000000000
         O           -1.195906128921    -0.785329963826    -0.581486258520    15.994914619560
         H           -0.372430959452    -1.387591664993     1.222064929873     1.007825032070
         H            0.765146042402    -1.361098193307    -0.215437356320     1.007825032070
         H            1.190086881801     2.220329143677    -0.097656414572     1.007825032070
         C            1.281909007356     1.135439298381    -0.095807387788    12.000000000000
         H            1.403809863138     0.768530080675    -1.119129706079     1.007825032070
         H            2.137905808347     0.844794785632     0.511433014177     1.007825032070
         O            0.099703943024     0.588170584466     0.488577911428    15.994914619560
         H           -0.786333714816     0.460501847375    -0.212193106817     1.007825032070

  Basis Set: 6-311++G(D,P)
    Blend: 6-311++G(D,P)
  Basis Set: (6-311++G(D,P) AUX)
    Blend: AUG-CC-PVTZ-JKFIT

  -Total Gradient:
     Atom            X                  Y                   Z
    ------   -----------------  -----------------  -----------------
       1       -0.000242737937    -0.000235142257    -0.000195492615
       2        0.000031341204    -0.000005078296     0.000047046553
       3        0.000051491911     0.000080321689     0.000116472504
       4        0.000097446596     0.000098338283     0.000074879883
       5        0.000023440842     0.000035658091     0.000020454798
       6       -0.000097571074    -0.000026675062     0.000051751736
       7       -0.000015323607     0.000037513967     0.000004752188
       8        0.000013361462     0.000018791914    -0.000010503657
       9        0.000088143075     0.000232548045     0.000010124413
      10        0.000048520473    -0.000208241757     0.000147391370

  Vibration                       1                   8                   9
  Freq [cm^-1]                1414.5775i           116.2972            219.5701
  Irrep                           A                   A                   A
  Reduced mass [u]              1.2344              2.8016              1.2112
  Force const [mDyne/A]        -1.4553              0.0223              0.0344

  Vibration                       10                  11                  12
  Freq [cm^-1]                 328.9069            612.0411            730.8196
  Irrep                           A                   A                   A
  Reduced mass [u]              2.3118              3.8886              6.2363
  Force const [mDyne/A]         0.1473              0.8582              1.9624

  Vibration                       13                  14                  15
  Freq [cm^-1]                 956.7579           1062.9884           1143.8430
  Irrep                           A                   A                   A
  Reduced mass [u]              1.1625              2.0611              1.5032
  Force const [mDyne/A]         0.6270              1.3721              1.1588

  Vibration                       16                  17                  18
  Freq [cm^-1]                1192.3008           1217.9902           1287.6303
  Irrep                           A                   A                   A
  Reduced mass [u]              1.2801              1.4623              1.3192
  Force const [mDyne/A]         1.0721              1.2782              1.2887

  Vibration                       19                  20                  21
  Freq [cm^-1]                1324.9044           1389.8543           1485.1184
  Irrep                           A                   A                   A
  Reduced mass [u]              1.3700              1.9813              1.1676
  Force const [mDyne/A]         1.4169              2.2549              1.5172

  Vibration                       22                  23                  24
  Freq [cm^-1]                1502.8457           1511.5916           1574.9180
  Irrep                           A                   A                   A
  Reduced mass [u]              1.0439              1.0470              1.3713
  Force const [mDyne/A]         1.3891              1.4095              2.0040

  Vibration                       25                  26                  27
  Freq [cm^-1]                2134.3222           2987.5189           3064.6347
  Irrep                           A                   A                   A
  Reduced mass [u]              1.0633              1.0575              1.0411
  Force const [mDyne/A]         2.8537              5.5611              5.7608

  Vibration                       28                  29                  30
  Freq [cm^-1]                3068.9148           3151.9425           3179.0397
  Irrep                           A                   A                   A
  Reduced mass [u]              1.1031              1.0998              1.1077
  Force const [mDyne/A]         6.1212              6.4378              6.5959

  ==> Thermochemistry Components <==

  Entropy, S
    Electronic S            0.000 [cal/(mol K)]        0.000 [J/(mol K)]       0.00000000 [mEh/K] (multiplicity = 1)
    Translational S        38.295 [cal/(mol K)]      160.226 [J/(mol K)]       0.06102678 [mEh/K] (mol. weight = 62.0368 [u], P = 101325.00 [Pa])
    Rotational S           24.043 [cal/(mol K)]      100.597 [J/(mol K)]       0.03831544 [mEh/K] (symmetry no. = 1)
    Vibrational S           7.524 [cal/(mol K)]       31.480 [J/(mol K)]       0.01199012 [mEh/K]
  Total S                  69.862 [cal/(mol K)]      292.303 [J/(mol K)]       0.11133234 [mEh/K]
  Correction S              0.000 [cal/(mol K)]        0.000 [J/(mol K)]       0.00000000 [mEh/K]

  Constant volume heat capacity, Cv
    Electronic Cv           0.000 [cal/(mol K)]        0.000 [J/(mol K)]       0.00000000 [mEh/K]
    Translational Cv        2.981 [cal/(mol K)]       12.472 [J/(mol K)]       0.00475022 [mEh/K]
    Rotational Cv           2.981 [cal/(mol K)]       12.472 [J/(mol K)]       0.00475022 [mEh/K]
    Vibrational Cv          9.221 [cal/(mol K)]       38.581 [J/(mol K)]       0.01469481 [mEh/K]
  Total Cv                 15.183 [cal/(mol K)]       63.525 [J/(mol K)]       0.02419525 [mEh/K]
  Correction Cv             0.000 [cal/(mol K)]        0.000 [J/(mol K)]       0.00000000 [mEh/K]

  Constant pressure heat capacity, Cp
    Electronic Cp           0.000 [cal/(mol K)]        0.000 [J/(mol K)]       0.00000000 [mEh/K]
    Translational Cp        4.968 [cal/(mol K)]       20.786 [J/(mol K)]       0.00791704 [mEh/K]
    Rotational Cp           2.981 [cal/(mol K)]       12.472 [J/(mol K)]       0.00475022 [mEh/K]
    Vibrational Cp          9.221 [cal/(mol K)]       38.581 [J/(mol K)]       0.01469481 [mEh/K]
  Total Cp                 17.170 [cal/(mol K)]       71.839 [J/(mol K)]       0.02736206 [mEh/K]
  Correction Cp             0.000 [cal/(mol K)]        0.000 [J/(mol K)]       0.00000000 [mEh/K]

  ==> Thermochemistry Energy Analysis <==

  Raw electronic energy, E0
  Total E0, Electronic energy at well bottom at 0 [K]                 -230.14593005 [Eh]

  Zero-point energy, ZPE_vib = Sum_i nu_i / 2
    Electronic ZPE          0.000 [kcal/mol]        0.000 [kJ/mol]       0.00000000 [Eh]
    Translational ZPE       0.000 [kcal/mol]        0.000 [kJ/mol]       0.00000000 [Eh]
    Rotational ZPE          0.000 [kcal/mol]        0.000 [kJ/mol]       0.00000000 [Eh]
    Vibrational ZPE        50.385 [kcal/mol]      210.810 [kJ/mol]       0.08029343 [Eh]       17622.369 [cm^-1]
  Correction ZPE           50.385 [kcal/mol]      210.810 [kJ/mol]       0.08029343 [Eh]       17622.369 [cm^-1]
  Total ZPE, Electronic energy at 0 [K]                               -230.06563661 [Eh]

  Thermal Energy, E (includes ZPE)
    Electronic E            0.000 [kcal/mol]        0.000 [kJ/mol]       0.00000000 [Eh]
    Translational E         0.889 [kcal/mol]        3.718 [kJ/mol]       0.00141628 [Eh]
    Rotational E            0.889 [kcal/mol]        3.718 [kJ/mol]       0.00141628 [Eh]
    Vibrational E          51.670 [kcal/mol]      216.189 [kJ/mol]       0.08234211 [Eh]
  Correction E             53.448 [kcal/mol]      223.626 [kJ/mol]       0.08517467 [Eh]
  Total E, Electronic energy at  298.15 [K]                           -230.06075538 [Eh]

  Enthalpy, H_trans = E_trans + k_B * T
    Electronic H            0.000 [kcal/mol]        0.000 [kJ/mol]       0.00000000 [Eh]
    Translational H         1.481 [kcal/mol]        6.197 [kJ/mol]       0.00236046 [Eh]
    Rotational H            0.889 [kcal/mol]        3.718 [kJ/mol]       0.00141628 [Eh]
    Vibrational H          51.670 [kcal/mol]      216.189 [kJ/mol]       0.08234211 [Eh]
  Correction H             54.040 [kcal/mol]      226.105 [kJ/mol]       0.08611885 [Eh]
  Total H, Enthalpy at  298.15 [K]                                    -230.05981120 [Eh]

  Gibbs free energy, G = H - T * S
    Electronic G            0.000 [kcal/mol]        0.000 [kJ/mol]       0.00000000 [Eh]
    Translational G        -9.936 [kcal/mol]      -41.574 [kJ/mol]      -0.01583467 [Eh]
    Rotational G           -6.280 [kcal/mol]      -26.275 [kJ/mol]      -0.01000747 [Eh]
    Vibrational G          49.427 [kcal/mol]      206.803 [kJ/mol]       0.07876726 [Eh]
  Correction G             33.211 [kcal/mol]      138.955 [kJ/mol]       0.05292512 [Eh]
  Total G, Free enthalpy at  298.15 [K]                               -230.09300493 [Eh]

*** Psi4 exiting successfully. Buy a developer a beer!
