                               Psi4 1.2.1 release

  ==> Input File <==

--------------------------------------------------------------------------
molecule{
0 1
C     -0.438042   -0.749370    0.240485
O     -1.507633   -0.532039   -0.482282
H      0.949000   -0.480803    2.265189
H     -0.740047   -0.228826    2.634910
H      0.887008    2.545001   -0.158340
C      1.033221    1.465294   -0.115158
H      1.214003    1.075283   -1.122448
H      1.884810    1.243748    0.528996
O     -0.147300    0.882268    0.456711
H     -1.083671    0.700208   -0.228661
C     -0.045374   -0.836935    2.094047
H     -0.123558   -1.850575    2.427695
H     -0.080062   -1.649127   -0.214691
}

set{
   basis 6-311++G(d,p)
   freeze_core True
   opt_type ts
}

set_num_threads(32)
optimize('m06-2x')
--------------------------------------------------------------------------

    Molecular point group: c1
  Charge       = 0
  Multiplicity = 1
  Basis Set: 6-311++G(D,P)
    Blend: 6-311++G(D,P)
  Basis Set: (6-311++G(D,P) AUX)
    Blend: AUG-CC-PVTZ-JKFIT
  @DF-RKS Final Energy:  -269.36372273081690
    Total Energy =                       -269.3637227308169031
    Molecular point group: c1
  Basis Set: 6-311++G(D,P)
    Blend: 6-311++G(D,P)
  Basis Set: (6-311++G(D,P) AUX)
    Blend: AUG-CC-PVTZ-JKFIT
  Basis Set: 6-311++G(D,P)
    Blend: 6-311++G(D,P)
  Basis Set: (6-311++G(D,P) AUX)
    Blend: AUG-CC-PVTZ-JKFIT
  @DF-RKS Final Energy:  -269.39773446551453
    Total Energy =                       -269.3977344655145316
  Basis Set: 6-311++G(D,P)
    Blend: 6-311++G(D,P)
  Basis Set: (6-311++G(D,P) AUX)
    Blend: AUG-CC-PVTZ-JKFIT
  Basis Set: 6-311++G(D,P)
    Blend: 6-311++G(D,P)
  @DF-RKS Final Energy:  -269.36986192779136
    Total Energy =                       -269.3698619277913622
  @DF-RKS Final Energy:  -269.41277587577889
    Total Energy =                       -269.4127758757789479
  @DF-RKS Final Energy:  -269.41734057814296
    Total Energy =                       -269.4173405781429551
  @DF-RKS Final Energy:  -269.42544074319255
    Total Energy =                       -269.4254407431925529
  @DF-RKS Final Energy:  -269.43014395019179
    Total Energy =                       -269.4301439501917912
  @DF-RKS Final Energy:  -269.43394686145729
    Total Energy =                       -269.4339468614573434
  @DF-RKS Final Energy:  -269.43781904939027
    Total Energy =                       -269.4378190493903276
  @DF-RKS Final Energy:  -269.44316145212423
    Total Energy =                       -269.4431614521242295
  @DF-RKS Final Energy:  -269.45257170871986
    Total Energy =                       -269.4525717087198586
  @DF-RKS Final Energy:  -269.45694273624696
    Total Energy =                       -269.4569427362469582
  @DF-RKS Final Energy:  -269.45352407538240
    Total Energy =                       -269.4535240753824041
  @DF-RKS Final Energy:  -269.45641747351652
    Total Energy =                       -269.4564174735165238
  @DF-RKS Final Energy:  -269.45619315232619
    Total Energy =                       -269.4561931523261933
  @DF-RKS Final Energy:  -269.45554696969606
    Total Energy =                       -269.4555469696960017
  @DF-RKS Final Energy:  -269.45450215805113
    Total Energy =                       -269.4545021580511275
  @DF-RKS Final Energy:  -269.45445439435355
    Total Energy =                       -269.4544543943535473
  @DF-RKS Final Energy:  -269.45568439485891
    Total Energy =                       -269.4556843948589062
  @DF-RKS Final Energy:  -269.45650441970577
    Total Energy =                       -269.4565044197057659
  @DF-RKS Final Energy:  -269.45708010984987
    Total Energy =                       -269.4570801098498691
  @DF-RKS Final Energy:  -269.45777638946299
    Total Energy =                       -269.4577763894629925
  @DF-RKS Final Energy:  -269.45869005700092
    Total Energy =                       -269.4586900570009220
  @DF-RKS Final Energy:  -269.45988336040358
    Total Energy =                       -269.4598833604035804
  @DF-RKS Final Energy:  -269.45996043023905
    Total Energy =                       -269.4599604302390503
  @DF-RKS Final Energy:  -269.45998212476195
    Total Energy =                       -269.4599821247619502
  @DF-RKS Final Energy:  -269.46023933401511
    Total Energy =                       -269.4602393340151139
  @DF-RKS Final Energy:  -269.46030580694611
    Total Energy =                       -269.4603058069460531
  @DF-RKS Final Energy:  -269.46089193094912
    Total Energy =                       -269.4608919309491171
  @DF-RKS Final Energy:  -269.46057369986102
    Total Energy =                       -269.4605736998610155
  @DF-RKS Final Energy:  -269.46087773067961
    Total Energy =                       -269.4608777306796128
  @DF-RKS Final Energy:  -269.46089740784680
    Total Energy =                       -269.4608974078468009
  @DF-RKS Final Energy:  -269.46090850715154
    Total Energy =                       -269.4609085071515437
  @DF-RKS Final Energy:  -269.46064119100151
    Total Energy =                       -269.4606411910015140
  @DF-RKS Final Energy:  -269.46086431004051
    Total Energy =                       -269.4608643100404493
  @DF-RKS Final Energy:  -269.46091810422598
    Total Energy =                       -269.4609181042259820
  @DF-RKS Final Energy:  -269.46092017007021
    Total Energy =                       -269.4609201700702101
  Basis Set: (6-311++G(D,P) AUX)
    Blend: AUG-CC-PVTZ-JKFIT
  Basis Set: 6-311++G(D,P)
    Blend: 6-311++G(D,P)
  Basis Set: (6-311++G(D,P) AUX)
    Blend: AUG-CC-PVTZ-JKFIT
  @DF-RKS Final Energy:  -269.46092222635554
    Total Energy =                       -269.4609222263555353
  Basis Set: 6-311++G(D,P)
    Blend: 6-311++G(D,P)
  Basis Set: (6-311++G(D,P) AUX)
    Blend: AUG-CC-PVTZ-JKFIT
  Charge       = 0
  Multiplicity = 1
  Basis Set: 6-311++G(D,P)
    Blend: 6-311++G(D,P)
  Basis Set: (6-311++G(D,P) AUX)
    Blend: AUG-CC-PVTZ-JKFIT

    Orbital Energies [Eh]
    ---------------------

    Doubly Occupied:

       1A    -19.673355     2A    -19.573152     3A    -10.654090
       4A    -10.606080     5A    -10.534831     6A     -1.213076
       7A     -1.099635     8A     -0.848315     9A     -0.807100
      10A     -0.685322    11A     -0.626720    12A     -0.571329
      13A     -0.554836    14A     -0.521821    15A     -0.488154
      16A     -0.479122    17A     -0.448447    18A     -0.443225
      19A     -0.418101    20A     -0.341358    21A     -0.317247

  @DF-RKS Final Energy:  -269.46092268942459

   => Energetics <=

    Nuclear Repulsion Energy =            195.9303156796133862
    One-Electron Energy =                -754.5261344974226176
    Two-Electron Energy =                 306.6673981206703843
    DFT Exchange-Correlation Energy =     -17.5325019922857486
    Empirical Dispersion Energy =           0.0000000000000000
    VV10 Nonlocal Energy =                  0.0000000000000000
    Total Energy =                       -269.4609226894245921

  Dipole Moment: [D]
     X:     3.2830      Y:     1.4721      Z:     0.6506     Total:     3.6563

    Molecular point group: c1
  Basis Set: 6-311++G(D,P)
    Blend: 6-311++G(D,P)
  Basis Set: (6-311++G(D,P) AUX)
    Blend: AUG-CC-PVTZ-JKFIT

  -Total Gradient:
     Atom            X                  Y                   Z
    ------   -----------------  -----------------  -----------------
       1        0.000103965697    -0.000054364060     0.000123165856
       2       -0.000066555309     0.000125812165    -0.000052217595
       3       -0.000007931649     0.000007171154     0.000038073410
       4       -0.000009629227     0.000007100295     0.000004808603
       5        0.000011232131    -0.000040277608    -0.000019612041
       6       -0.000017544220    -0.000055358614    -0.000006427768
       7        0.000019145443    -0.000050539186    -0.000000124254
       8        0.000019055890    -0.000025297998     0.000000349833
       9        0.000201385762    -0.000028253344     0.000162818465
      10       -0.000244044399    -0.000203003347    -0.000127073334
      11        0.000025059684     0.000052854626    -0.000085983320
      12       -0.000010527903     0.000003425058     0.000029133212
      13        0.000007076056    -0.000011394328     0.000083877702

  **** Optimization is complete! (in 39 steps) ****
    Final optimized geometry and variables:
    Molecular point group: c1

    Geometry (in Angstrom), charge = 0, multiplicity = 1:

    C           -0.036462680314    -0.723683554130     0.092533024763
    O           -1.095730032479    -0.765226363212    -0.671670906753
    H            0.715155397527    -0.716144352256     2.117684133378
    H           -1.048437370072    -0.461731330943     1.947694249656
    H            1.009426883401     2.456861203234    -1.093603233550
    C            1.205171707811     1.418682068159    -0.827950895574
    H            1.327774003395     0.821422411390    -1.737008204778
    H            2.111309173268     1.366216671251    -0.224377102372
    O            0.108954321354     0.938118808173    -0.056947628683
    H           -0.783230166478     0.533596177120    -0.652826365660
    C           -0.180937356454    -0.997974733242     1.563335646612
    H           -0.352621651038    -2.070300409426     1.684973199517
    H            0.920242285339    -1.066362999473    -0.336706894028

*** Psi4 exiting successfully. Buy a developer a beer!
