                               Psi4 1.2.1 release

  ==> Input File <==

--------------------------------------------------------------------------

molecule {
0 1
 C    0.022416430723   -0.085847633159   -1.184513458862
 O   -1.008702638725   -0.295901042399   -1.880029585990
CL    1.423844081909    0.381203483610    1.119323124843
CL   -1.488020987053    0.325358976349    1.062682370363
 H    0.790726059669    3.180506574943   -2.236105186482
 C    1.087453099946    2.162572815271   -2.007739364332
 H    1.315417114396    1.611314747602   -2.923297789734
 H    1.941737251071    2.163153984854   -1.334044324755
 O    0.003408391072    1.539923815428   -1.312899362384
 H   -0.792898713464    1.323101652660   -1.888304594521
 C   -0.020682624730   -0.337635201152    0.351022350553
CL    0.026559871291   -2.100832980328    0.539485985776
 H    1.036216824763   -0.351182548326   -1.542632564336
}

set{
  basis 6-311++G(d,p)
  freeze_core True
  cubeprop_tasks ['ESP']
}

set_num_threads(32)
E, wfn = energy('m06-2x', return_wfn=True)
cubeprop(wfn)
--------------------------------------------------------------------------

    Molecular point group: c1

    Geometry (in Angstrom), charge = 0, multiplicity = 1:

       Center              X                  Y                   Z               Mass
    ------------   -----------------  -----------------  -----------------  -----------------
         C            0.022416430723    -0.085847633159    -1.184513458862    12.000000000000
         O           -1.008702638725    -0.295901042399    -1.880029585990    15.994914619560
         CL           1.423844081909     0.381203483610     1.119323124843    34.968852682000
         CL          -1.488020987053     0.325358976349     1.062682370363    34.968852682000
         H            0.790726059669     3.180506574943    -2.236105186482     1.007825032070
         C            1.087453099946     2.162572815271    -2.007739364332    12.000000000000
         H            1.315417114396     1.611314747602    -2.923297789734     1.007825032070
         H            1.941737251071     2.163153984854    -1.334044324755     1.007825032070
         O            0.003408391072     1.539923815428    -1.312899362384    15.994914619560
         H           -0.792898713464     1.323101652660    -1.888304594521     1.007825032070
         C           -0.020682624730    -0.337635201152     0.351022350553    12.000000000000
         CL           0.026559871291    -2.100832980328     0.539485985776    34.968852682000
         H            1.036216824763    -0.351182548326    -1.542632564336     1.007825032070

  Charge       = 0
  Multiplicity = 1
  Basis Set: 6-311++G(D,P)
    Blend: 6-311++G(D,P)
  Basis Set: (6-311++G(D,P) AUX)
    Blend: AUG-CC-PVTZ-JKFIT

    Orbital Energies [Eh]
    ---------------------

    Doubly Occupied:

       1A   -102.699903     2A   -102.694194     3A   -102.692208
       4A    -19.729184     5A    -19.583123     6A    -10.728945
       7A    -10.681918     8A    -10.635809     9A     -9.842618
      10A     -9.836819    11A     -9.834899    12A     -7.567814
      13A     -7.562212    14A     -7.560735    15A     -7.560582
      16A     -7.560350    17A     -7.554789    18A     -7.554610
      19A     -7.552844    20A     -7.552720    21A     -1.271854
      22A     -1.134740    23A     -1.052149    24A     -0.941745
      25A     -0.939389    26A     -0.855976    27A     -0.803358
      28A     -0.686483    29A     -0.667991    30A     -0.617244
      31A     -0.604346    32A     -0.561105    33A     -0.540542
      34A     -0.536936    35A     -0.503477    36A     -0.488042
      37A     -0.477632    38A     -0.423341    39A     -0.420858
      40A     -0.407478    41A     -0.388765    42A     -0.386718
      43A     -0.371747    44A     -0.356120    45A     -0.328126

  @DF-RKS Final Energy: -1648.25029705544625

   => Energetics <=

    Nuclear Repulsion Energy =            678.8853769945030763
    One-Electron Energy =               -3622.3541744578478756
    Two-Electron Energy =                1352.3198612621347365
    DFT Exchange-Correlation Energy =     -57.1013608542362903
    Empirical Dispersion Energy =           0.0000000000000000
    VV10 Nonlocal Energy =                  0.0000000000000000
    Total Energy =                      -1648.2502970554462536

  Dipole Moment: [D]
     X:     3.0309      Y:     3.7671      Z:    -1.7077     Total:     5.1277

  Basis Set: 6-311++G(D,P)
    Blend: 6-311++G(D,P)
*** Psi4 exiting successfully. Buy a developer a beer!
