                               Psi4 1.2.1 release

  ==> Input File <==

--------------------------------------------------------------------------
molecule{
0 1
 C   -0.039339400270   -0.371351635036   -1.203178500889
 O   -1.026060665801   -0.485518701393   -1.856024595470
CL    1.397247960597    0.364338383748    1.021877543185
CL   -1.501870162094    0.299297659256    1.027538840858
 H    1.149367013301    3.375337596336   -2.418305155906
 C    1.176798298330    2.339582245984   -2.071710921269
 H    1.206378673362    1.672104951450   -2.940325695931
 H    2.080091195959    2.192942810134   -1.480092829510
 O    0.083009504860    2.044835874975   -1.219577809129
 H   -0.742739445086    2.161065526535   -1.700964604154
 C   -0.047371818938   -0.411708628119    0.345552674809
CL    0.027050460457   -2.171369986417    0.655192952413
 H    0.985862189687   -0.367822019369   -1.611921656544
}

set{
   basis 6-311++G(d,p)
   freeze_core True
}

set_num_threads(32)
optimize('m06-2x')
--------------------------------------------------------------------------

    Molecular point group: c1
  Charge       = 0
  Multiplicity = 1
  Basis Set: 6-311++G(D,P)
    Blend: 6-311++G(D,P)
  Basis Set: (6-311++G(D,P) AUX)
    Blend: AUG-CC-PVTZ-JKFIT
  @DF-RKS Final Energy: -1648.29179093546099
    Total Energy =                      -1648.2917909354609947
    Molecular point group: c1
  Basis Set: 6-311++G(D,P)
    Blend: 6-311++G(D,P)
  Basis Set: (6-311++G(D,P) AUX)
    Blend: AUG-CC-PVTZ-JKFIT
  Basis Set: 6-311++G(D,P)
    Blend: 6-311++G(D,P)
  Basis Set: (6-311++G(D,P) AUX)
    Blend: AUG-CC-PVTZ-JKFIT
  @DF-RKS Final Energy: -1648.29292169225300
    Total Energy =                      -1648.2929216922530031
  Basis Set: 6-311++G(D,P)
    Blend: 6-311++G(D,P)
  Basis Set: (6-311++G(D,P) AUX)
    Blend: AUG-CC-PVTZ-JKFIT
  Basis Set: 6-311++G(D,P)
    Blend: 6-311++G(D,P)
  @DF-RKS Final Energy: -1648.29320881731383
    Total Energy =                      -1648.2932088173138254
  @DF-RKS Final Energy: -1648.29334666799468
    Total Energy =                      -1648.2933466679946832
  @DF-RKS Final Energy: -1648.29338273213011
    Total Energy =                      -1648.2933827321301123
  @DF-RKS Final Energy: -1648.29340007255200
    Total Energy =                      -1648.2934000725520036
  @DF-RKS Final Energy: -1648.29342127546875
    Total Energy =                      -1648.2934212754687451
  @DF-RKS Final Energy: -1648.29343158793927
    Total Energy =                      -1648.2934315879392670
  @DF-RKS Final Energy: -1648.29343439477589
    Total Energy =                      -1648.2934343947758862
  @DF-RKS Final Energy: -1648.29343805642884
    Total Energy =                      -1648.2934380564288404
  @DF-RKS Final Energy: -1648.29344612767454
    Total Energy =                      -1648.2934461276745424
  @DF-RKS Final Energy: -1648.29344227795013
    Total Energy =                      -1648.2934422779501347
  @DF-RKS Final Energy: -1648.29344344581978
    Total Energy =                      -1648.2934434458197757
  @DF-RKS Final Energy: -1648.29345208150562
    Total Energy =                      -1648.2934520815056203
  @DF-RKS Final Energy: -1648.29345698306838
    Total Energy =                      -1648.2934569830683813
  @DF-RKS Final Energy: -1648.29345947235902
    Total Energy =                      -1648.2934594723590180
  Basis Set: (6-311++G(D,P) AUX)
    Blend: AUG-CC-PVTZ-JKFIT
  Basis Set: 6-311++G(D,P)
    Blend: 6-311++G(D,P)
  Basis Set: (6-311++G(D,P) AUX)
    Blend: AUG-CC-PVTZ-JKFIT
  @DF-RKS Final Energy: -1648.29346189349098
    Total Energy =                      -1648.2934618934909849
  Basis Set: 6-311++G(D,P)
    Blend: 6-311++G(D,P)
  Basis Set: (6-311++G(D,P) AUX)
    Blend: AUG-CC-PVTZ-JKFIT
  Charge       = 0
  Multiplicity = 1
  Basis Set: 6-311++G(D,P)
    Blend: 6-311++G(D,P)
  Basis Set: (6-311++G(D,P) AUX)
    Blend: AUG-CC-PVTZ-JKFIT

    Orbital Energies [Eh]
    ---------------------

    Doubly Occupied:

       1A   -102.703767     2A   -102.700473     3A   -102.699643
       4A    -19.662651     5A    -19.641193     6A    -10.737523
       7A    -10.675180     8A    -10.593325     9A     -9.846234
      10A     -9.843214    11A     -9.842329    12A     -7.571571
      13A     -7.568613    14A     -7.567819    15A     -7.564217
      16A     -7.564007    17A     -7.561216    18A     -7.560977
      19A     -7.560223    20A     -7.560127    21A     -1.223643
      22A     -1.163384    23A     -1.060735    24A     -0.946895
      25A     -0.945822    26A     -0.799807    27A     -0.793779
      28A     -0.677565    29A     -0.605034    30A     -0.604005
      31A     -0.574802    32A     -0.568013    33A     -0.536695
      34A     -0.531080    35A     -0.517185    36A     -0.491413
      37A     -0.434086    38A     -0.427384    39A     -0.422096
      40A     -0.419558    41A     -0.393467    42A     -0.390202
      43A     -0.376554    44A     -0.372226    45A     -0.360370

  @DF-RKS Final Energy: -1648.29346203259706

   => Energetics <=

    Nuclear Repulsion Energy =            653.9505774030628800
    One-Electron Energy =               -3572.7871760180250931
    Two-Electron Energy =                1327.6131754624777841
    DFT Exchange-Correlation Energy =     -57.0700388801127616
    Empirical Dispersion Energy =           0.0000000000000000
    VV10 Nonlocal Energy =                  0.0000000000000000
    Total Energy =                      -1648.2934620325970627

  Dipole Moment: [D]
     X:     1.5554      Y:     1.3739      Z:    -1.5960     Total:     2.6180

    Molecular point group: c1
  Basis Set: 6-311++G(D,P)
    Blend: 6-311++G(D,P)
  Basis Set: (6-311++G(D,P) AUX)
    Blend: AUG-CC-PVTZ-JKFIT

  -Total Gradient:
     Atom            X                  Y                   Z
    ------   -----------------  -----------------  -----------------
       1        0.000049613048    -0.000034634284     0.000084977070
       2       -0.000048279582     0.000011518761    -0.000076358694
       3       -0.000043939532    -0.000036748193     0.000005732066
       4       -0.000027164506    -0.000061532219    -0.000024634359
       5       -0.000020949213     0.000012109278     0.000022335099
       6       -0.000024599881    -0.000011882809     0.000041075215
       7       -0.000007823799    -0.000008958945    -0.000017991489
       8        0.000015985624     0.000000081768     0.000044039043
       9       -0.000047602743    -0.000024467348     0.000000627483
      10       -0.000046389921     0.000022431448     0.000000590811
      11       -0.000032467803     0.000014709769    -0.000030655377
      12       -0.000025974335    -0.000079455061    -0.000014560528
      13        0.000006225087    -0.000010126297    -0.000013357334

  **** Optimization is complete! (in 18 steps) ****
    Final optimized geometry and variables:
    Molecular point group: c1

    Geometry (in Angstrom), charge = 0, multiplicity = 1:

    C            0.039747619376    -0.560115473329    -1.171679201693
    O           -0.900736577819    -0.577097127027    -1.896214754315
    CL           1.404075241410     0.254251346208     1.030657561819
    CL          -1.496330887949     0.492795286685     0.834195136018
    H            1.288739756888     3.402792209124    -2.536272430060
    C            1.307297044444     2.345220782678    -2.259756155464
    H            1.157338218214     1.735295783835    -3.157010212653
    H            2.284559444686     2.115795566375    -1.835367208057
    O            0.348758063804     2.049053933431    -1.258024796208
    H           -0.532196777700     2.238807439646    -1.593170834625
    C           -0.082352533527    -0.444012716064     0.369730146615
    CL          -0.241491019163    -2.133783866010     0.934690866505
    H            1.083509554251    -0.705773458548    -1.499637713570

*** Psi4 exiting successfully. Buy a developer a beer!
