                               Psi4 1.2.1 release

  ==> Input File <==

--------------------------------------------------------------------------
molecule{
0 1
 N  -0.9212862016   0.2426167092   0.5919490556
 N   1.3937572257  -0.2598049576  -0.0333292051
 O   0.5313915150  -0.8600141985  -0.8741478520
 C  -0.9374945439  -0.6165350072  -0.3631641670
 O  -1.7079703465  -1.2838484964  -1.0001613920
 C   0.7280376494   1.9429916745  -0.8859546938
 C   1.9145706569  -1.1443581281   0.9946128356
 H   1.0758410188  -1.4655957906   1.6131569551
 H   2.3699591919  -1.9996563756   0.5048508128
 H   2.6527357465  -0.6129868592   1.5891524340
 C  -2.2114750416   0.6712669187   1.0915356359
 H  -3.0228756920   0.0891213561   0.6472964044
 H  -2.2537464013   0.5632990528   2.1762285376
 H  -2.3846517311   1.7267248678   0.8614878303
 C   1.2190338205   1.0069292021   0.1508177612
 H   0.2531976761   1.4128634817  -1.7042302426
 H   0.0233823665   2.6395548385  -0.4377973746
 H   1.5826575837   2.5155197173  -1.2579510805
 H   1.7109845070   1.4124339945   1.0280247451

}

set{
   basis 6-31+G(d)
   freeze_core True
   opt_type ts
}

optimize('scf')
--------------------------------------------------------------------------

    Molecular point group: c1
  Charge       = 0
  Multiplicity = 1
  Basis Set: 6-31+G(D)
    Blend: 6-31+G(D)
  Basis Set: (6-31+G(D) AUX)
    Blend: HEAVY-AUG-CC-PVDZ-JKFIT
  @DF-RHF Final Energy:  -453.66560315790974
    Total Energy =                       -453.6656031579096862
    Molecular point group: c1
  Basis Set: 6-31+G(D)
    Blend: 6-31+G(D)
  Basis Set: (6-31+G(D) AUX)
    Blend: HEAVY-AUG-CC-PVDZ-JKFIT
  Basis Set: 6-31+G(D)
    Blend: 6-31+G(D)
  Basis Set: (6-31+G(D) AUX)
    Blend: HEAVY-AUG-CC-PVDZ-JKFIT
  @DF-RHF Final Energy:  -453.66787878953528
    Total Energy =                       -453.6678787895352798
  Basis Set: 6-31+G(D)
    Blend: 6-31+G(D)
  Basis Set: (6-31+G(D) AUX)
    Blend: HEAVY-AUG-CC-PVDZ-JKFIT
  Basis Set: 6-31+G(D)
    Blend: 6-31+G(D)
  @DF-RHF Final Energy:  -453.66343926214745
    Total Energy =                       -453.6634392621474490
  @DF-RHF Final Energy:  -453.66714018827827
    Total Energy =                       -453.6671401882782675
  @DF-RHF Final Energy:  -453.66787198245174
    Total Energy =                       -453.6678719824517430
  @DF-RHF Final Energy:  -453.66608333003643
    Total Energy =                       -453.6660833300364857
  @DF-RHF Final Energy:  -453.66781013783026
    Total Energy =                       -453.6678101378302017
  @DF-RHF Final Energy:  -453.66804285800487
    Total Energy =                       -453.6680428580048101
  @DF-RHF Final Energy:  -453.66747877100676
    Total Energy =                       -453.6674787710066994
  @DF-RHF Final Energy:  -453.66845788088932
    Total Energy =                       -453.6684578808893775
  @DF-RHF Final Energy:  -453.66625820978408
    Total Energy =                       -453.6662582097841323
  @DF-RHF Final Energy:  -453.66886892561735
    Total Energy =                       -453.6688689256174030
  @DF-RHF Final Energy:  -453.66895956361566
    Total Energy =                       -453.6689595636156582
  @DF-RHF Final Energy:  -453.66777199470289
    Total Energy =                       -453.6677719947028891
  @DF-RHF Final Energy:  -453.66894394830621
    Total Energy =                       -453.6689439483061506
  @DF-RHF Final Energy:  -453.66894457526445
    Total Energy =                       -453.6689445752645042
  @DF-RHF Final Energy:  -453.66900633668990
    Total Energy =                       -453.6690063366899039
  @DF-RHF Final Energy:  -453.66900808605294
    Total Energy =                       -453.6690080860529406
  @DF-RHF Final Energy:  -453.66899588918767
    Total Energy =                       -453.6689958891877268
  @DF-RHF Final Energy:  -453.66900705555219
    Total Energy =                       -453.6690070555522425
  Basis Set: (6-31+G(D) AUX)
    Blend: HEAVY-AUG-CC-PVDZ-JKFIT
  Basis Set: 6-31+G(D)
    Blend: 6-31+G(D)
  Basis Set: (6-31+G(D) AUX)
    Blend: HEAVY-AUG-CC-PVDZ-JKFIT
  @DF-RHF Final Energy:  -453.66900838285056
    Total Energy =                       -453.6690083828505067
  Basis Set: 6-31+G(D)
    Blend: 6-31+G(D)
  Basis Set: (6-31+G(D) AUX)
    Blend: HEAVY-AUG-CC-PVDZ-JKFIT
  Charge       = 0
  Multiplicity = 1
  Basis Set: 6-31+G(D)
    Blend: 6-31+G(D)
  Basis Set: (6-31+G(D) AUX)
    Blend: HEAVY-AUG-CC-PVDZ-JKFIT

    Orbital Energies [Eh]
    ---------------------

    Doubly Occupied:

       1A    -20.631189     2A    -20.498723     3A    -15.708113
       4A    -15.509636     5A    -11.388199     6A    -11.353519
       7A    -11.296469     8A    -11.268901     9A    -11.223149
      10A     -1.511147    11A     -1.360936    12A     -1.235543
      13A     -1.176749    14A     -1.085470    15A     -0.989708
      16A     -0.926108    17A     -0.861543    18A     -0.770054
      19A     -0.745682    20A     -0.709959    21A     -0.666706
      22A     -0.634256    23A     -0.628387    24A     -0.610585
      25A     -0.599178    26A     -0.595235    27A     -0.589055
      28A     -0.575463    29A     -0.547557    30A     -0.529606
      31A     -0.488071    32A     -0.462993    33A     -0.444309
      34A     -0.367207    35A     -0.331808

  @DF-RHF Final Energy:  -453.66900872687773

   => Energetics <=

    Nuclear Repulsion Energy =            492.5774469858287716
    One-Electron Energy =               -1595.8504899145279978
    Two-Electron Energy =                 649.6040342018213778
    Total Energy =                       -453.6690087268777916

  Dipole Moment: [D]
     X:     6.1512      Y:     5.1948      Z:     3.1224     Total:     8.6356

    Molecular point group: c1
  Basis Set: 6-31+G(D)
    Blend: 6-31+G(D)
  Basis Set: (6-31+G(D) AUX)
    Blend: HEAVY-AUG-CC-PVDZ-JKFIT

  -Total Gradient:
     Atom            X                  Y                   Z
    ------   -----------------  -----------------  -----------------
       1       -0.000086308150     0.000012048964     0.000021694606
       2       -0.000037644702    -0.000006363865     0.000011454437
       3        0.000000722828    -0.000051924316    -0.000046626180
       4        0.000131253057    -0.000021078159    -0.000009181404
       5        0.000008679810    -0.000001109335    -0.000009201248
       6       -0.000006962868     0.000011034744    -0.000005661665
       7       -0.000007462893    -0.000015250481    -0.000002400132
       8       -0.000000000858    -0.000004219421     0.000002519650
       9        0.000001475715    -0.000000583045     0.000000769292
      10       -0.000004736760     0.000003982048    -0.000005454400
      11       -0.000023299783     0.000042544912     0.000057114177
      12        0.000009187681    -0.000007210506     0.000004435578
      13        0.000012377053     0.000008119257    -0.000017724925
      14       -0.000033624691     0.000007224497     0.000010542706
      15        0.000048423066     0.000012696346    -0.000018626973
      16       -0.000002551802     0.000002220617     0.000001250618
      17       -0.000005829407     0.000008581841    -0.000004394902
      18       -0.000001117422    -0.000005916279     0.000005722881
      19       -0.000002579873     0.000005202183     0.000003767880

  **** Optimization is complete! (in 22 steps) ****
    Final optimized geometry and variables:
    Molecular point group: c1

    Geometry (in Angstrom), charge = 0, multiplicity = 1:

    N           -0.958720192911     0.285561846421     0.533542654349
    N            1.400755566938    -0.096402538825     0.085118508082
    O            0.598307585570    -0.795889320739    -0.742299052612
    C           -0.813678672979    -0.662497178835    -0.328433026800
    O           -1.524880168756    -1.442185587598    -0.899322540147
    C            0.679396263635     2.027032162012    -0.940344576803
    C            1.928090487473    -0.890477437100     1.181102880859
    H            1.108261355750    -1.255539989215     1.785430864670
    H            2.475020106213    -1.718928580910     0.757727981717
    H            2.594758303976    -0.280851024736     1.774450606766
    C           -2.319211449813     0.542154939413     0.953080500490
    H           -2.952007073023     0.858696351279     0.126299558146
    H           -2.779424390520    -0.338811571616     1.393806941250
    H           -2.316564024880     1.329445447456     1.698800473384
    C            1.125487656808     1.157306464636     0.182624729451
    H            0.263794262452     1.460532622837    -1.756311044289
    H           -0.045718739453     2.740628264370    -0.576601354339
    H            1.556775455753     2.573280160015    -1.284184489655
    H            1.513588939583     1.643457790585     1.059691842172

*** Psi4 exiting successfully. Buy a developer a beer!
