                               Psi4 1.2.1 release

  ==> Input File <==

--------------------------------------------------------------------------
molecule{
0 1
C       -2.0307200       -0.2303590        0.1746990
O       -2.3030580       -0.1856810        1.3393470
O       -2.6141200       -0.0215870       -0.9448480
N       -0.6090370       -0.5238310       -0.3625610
H       -1.3834650       -0.2220590       -1.3319790
H       -0.3490160       -1.5078760       -0.2890060
C        0.4214750        0.3229120        0.2394680
H        0.2359570        0.3519040        1.3207500
C        1.7616160       -0.3526640        0.0379120
O        1.8959420       -1.4976830       -0.3163680
O        2.7853150        0.4559570        0.3347540
H        3.5989270       -0.0621710        0.2181550
C        0.3554060        1.7355250       -0.3308570
H       -0.6408040        2.1484850       -0.1676750
H        1.0844780        2.3767810        0.1597960
H        0.5578830        1.7212190       -1.4025280
}

set{
   basis 6-31+G*
   freeze_core True
   opt_type ts
}

set_num_threads(16)
optimize('b3lyp')
--------------------------------------------------------------------------

    Molecular point group: c1
  Charge       = 0
  Multiplicity = 1
  Basis Set: 6-31+G*
    Blend: 6-31+G*
  Basis Set: (6-31+G* AUX)
    Blend: HEAVY-AUG-CC-PVDZ-JKFIT
  @DF-RKS Final Energy:  -512.28347371713539
    Total Energy =                       -512.2834737171353936
    Molecular point group: c1
  Basis Set: 6-31+G*
    Blend: 6-31+G*
  Basis Set: (6-31+G* AUX)
    Blend: HEAVY-AUG-CC-PVDZ-JKFIT
  Basis Set: 6-31+G*
    Blend: 6-31+G*
  Basis Set: (6-31+G* AUX)
    Blend: HEAVY-AUG-CC-PVDZ-JKFIT
  @DF-RKS Final Energy:  -512.28467888544276
    Total Energy =                       -512.2846788854427587
  Basis Set: 6-31+G*
    Blend: 6-31+G*
  Basis Set: (6-31+G* AUX)
    Blend: HEAVY-AUG-CC-PVDZ-JKFIT
  Basis Set: 6-31+G*
    Blend: 6-31+G*
  @DF-RKS Final Energy:  -512.28338511419963
    Total Energy =                       -512.2833851141995183
  @DF-RKS Final Energy:  -512.28822461830180
    Total Energy =                       -512.2882246183017969
  @DF-RKS Final Energy:  -512.28638934880291
    Total Energy =                       -512.2863893488029134
  @DF-RKS Final Energy:  -512.28462770699355
    Total Energy =                       -512.2846277069936605
  @DF-RKS Final Energy:  -512.28201520780135
    Total Energy =                       -512.2820152078013507
  @DF-RKS Final Energy:  -512.28396567761604
    Total Energy =                       -512.2839656776161519
  @DF-RKS Final Energy:  -512.28433966228988
    Total Energy =                       -512.2843396622898808
  @DF-RKS Final Energy:  -512.28450664378590
    Total Energy =                       -512.2845066437859032
  @DF-RKS Final Energy:  -512.28454848004833
    Total Energy =                       -512.2845484800483291
  @DF-RKS Final Energy:  -512.28359136055190
    Total Energy =                       -512.2835913605518954
  @DF-RKS Final Energy:  -512.28335237812325
    Total Energy =                       -512.2833523781232543
  @DF-RKS Final Energy:  -512.28399970443866
    Total Energy =                       -512.2839997044386564
  @DF-RKS Final Energy:  -512.28423131003706
    Total Energy =                       -512.2842313100370575
  @DF-RKS Final Energy:  -512.28455744515156
    Total Energy =                       -512.2845574451515631
  @DF-RKS Final Energy:  -512.28451417039776
    Total Energy =                       -512.2845141703977561
  @DF-RKS Final Energy:  -512.28464548083434
    Total Energy =                       -512.2846454808343424
  @DF-RKS Final Energy:  -512.28436855805751
    Total Energy =                       -512.2843685580575084
  @DF-RKS Final Energy:  -512.28462420212543
    Total Energy =                       -512.2846242021254284
  @DF-RKS Final Energy:  -512.28465543031234
    Total Energy =                       -512.2846554303123412
  @DF-RKS Final Energy:  -512.28465950394570
    Total Energy =                       -512.2846595039457043
  Basis Set: (6-31+G* AUX)
    Blend: HEAVY-AUG-CC-PVDZ-JKFIT
  Basis Set: 6-31+G*
    Blend: 6-31+G*
  Basis Set: (6-31+G* AUX)
    Blend: HEAVY-AUG-CC-PVDZ-JKFIT
  @DF-RKS Final Energy:  -512.28466194801820
    Total Energy =                       -512.2846619480181971
  Basis Set: 6-31+G*
    Blend: 6-31+G*
  Basis Set: (6-31+G* AUX)
    Blend: HEAVY-AUG-CC-PVDZ-JKFIT
  Charge       = 0
  Multiplicity = 1
  Basis Set: 6-31+G*
    Blend: 6-31+G*
  Basis Set: (6-31+G* AUX)
    Blend: HEAVY-AUG-CC-PVDZ-JKFIT

    Orbital Energies [Eh]
    ---------------------

    Doubly Occupied:

       1A    -19.248770     2A    -19.194436     3A    -19.173223
       4A    -19.162460     5A    -14.410291     6A    -10.371005
       7A    -10.355565     8A    -10.284996     9A    -10.220710
      10A     -1.157353    11A     -1.112691    12A     -1.068583
      13A     -1.036768    14A     -0.952589    15A     -0.806502
      16A     -0.713259    17A     -0.651879    18A     -0.601707
      19A     -0.553802    20A     -0.537097    21A     -0.534627
      22A     -0.525424    23A     -0.485844    24A     -0.472878
      25A     -0.458391    26A     -0.442366    27A     -0.439149
      28A     -0.427157    29A     -0.408770    30A     -0.391706
      31A     -0.368826    32A     -0.327807    33A     -0.318410
      34A     -0.316819    35A     -0.290095

  @DF-RKS Final Energy:  -512.28466283390071

   => Energetics <=

    Nuclear Repulsion Energy =            465.8888318636290364
    One-Electron Energy =               -1622.6628685214220695
    Two-Electron Energy =                 697.4492057955919790
    DFT Exchange-Correlation Energy =     -52.9598319716997423
    Empirical Dispersion Energy =           0.0000000000000000
    VV10 Nonlocal Energy =                  0.0000000000000000
    Total Energy =                       -512.2846628339007111

  Dipole Moment: [D]
     X:     5.3183      Y:     1.0926      Z:    -1.3949     Total:     5.6057

    Molecular point group: c1
  Basis Set: 6-31+G*
    Blend: 6-31+G*
  Basis Set: (6-31+G* AUX)
    Blend: HEAVY-AUG-CC-PVDZ-JKFIT

  -Total Gradient:
     Atom            X                  Y                   Z
    ------   -----------------  -----------------  -----------------
       1       -0.000131311751    -0.000004465503     0.000009605870
       2        0.000027587355     0.000024054547     0.000026818898
       3        0.000080682725    -0.000011934391     0.000083634147
       4       -0.000022042213    -0.000066068601    -0.000096777678
       5        0.000081170291     0.000011610439     0.000012880521
       6       -0.000028933066     0.000016480466    -0.000009772056
       7       -0.000019086631     0.000039615441     0.000064427735
       8       -0.000010499701    -0.000000161774    -0.000007188585
       9       -0.000113842601    -0.000046344262     0.000001744838
      10        0.000083221003     0.000064422667     0.000001711986
      11        0.000031701224    -0.000029375184    -0.000058881640
      12        0.000040757525     0.000009473389     0.000027241285
      13        0.000024810226     0.000017873645    -0.000010479520
      14       -0.000009802412    -0.000003139197    -0.000001296202
      15       -0.000012501327     0.000004982201     0.000005341284
      16        0.000005100867    -0.000004057891     0.000002799333

  **** Optimization is complete! (in 24 steps) ****
    Final optimized geometry and variables:
    Molecular point group: c1

    Geometry (in Angstrom), charge = 0, multiplicity = 1:

    C           -2.005217769593    -0.199237767993     0.365170813877
    O           -2.183267301723    -0.071482649957     1.548171482950
    O           -2.717776087611    -0.146346666465    -0.710058018997
    N           -0.624503354044    -0.450496918147    -0.303712706182
    H           -1.535199220469    -0.277358282065    -1.217511552159
    H           -0.339892470928    -1.431513814489    -0.212528229693
    C            0.476621524553     0.432265710128     0.119585943527
    H            0.379000816751     0.583382498823     1.206768758991
    C            1.791265890324    -0.309118308705    -0.092779138810
    O            1.874997282961    -1.488367475796    -0.367323265466
    O            2.861450199697     0.485755835615     0.098375081742
    H            3.662419460785    -0.062402936520    -0.009883307599
    C            0.406615235091     1.791492697625    -0.585743509235
    H           -0.560927712260     2.263315252141    -0.386713384136
    H            1.194136242771     2.453051296298    -0.217352126953
    H            0.520727300219     1.675169915320    -1.668818203510

*** Psi4 exiting successfully. Buy a developer a beer!
