                               Psi4 1.2.1 release

  ==> Input File <==

--------------------------------------------------------------------------
molecule{
0 1
 C    0.132149780019    0.464485552988   -1.555878749644
 O   -0.941538170037    0.112932105438   -2.353711474141
BR    1.580303840692    0.457103442135    0.884356510981
BR   -1.602541917447    0.645810589267    0.721554292461
 H    1.140720803636    3.486733344777   -2.249388538373
 C    1.333818205297    2.417379765118   -2.195322164853
 H    1.390460659622    2.009151699788   -3.208456461089
 H    2.275891032237    2.242828091473   -1.667409556590
 O    0.250490274042    1.846086645691   -1.476450587128
 H   -1.676644631136    0.689748904733   -2.116760962932
 C   -0.004930192026   -0.088475487599   -0.100349261761
BR   -0.112904552015   -2.032262310533   -0.100618731432
 H    1.023100748149   -0.006757017467   -1.983573773920
}

basis {
  assign 6-311ppgss
  assign Br def2-tzvpp
}

set{
   freeze_core True
}

set_num_threads(32)
optimize('m06-2x')
--------------------------------------------------------------------------

    Molecular point group: c1
  Charge       = 0
  Multiplicity = 1
  Basis Set: ANONYMOUS58475730
    Blend: 6-311PPGSS + DEF2-TZVPP
  Basis Set: (ANONYMOUS58475730 AUX)
    Blend: AUG-CC-PVTZ-JKFIT + DEF2-TZVPP-JKFIT
  @DF-RKS Final Energy: -7990.30654407152542
    Total Energy =                      -7990.3065440715254226
    Molecular point group: c1
  Basis Set: ANONYMOUS58475730
    Blend: 6-311PPGSS + DEF2-TZVPP
  Basis Set: (ANONYMOUS58475730 AUX)
    Blend: AUG-CC-PVTZ-JKFIT + DEF2-TZVPP-JKFIT
  Basis Set: ANONYMOUS58475730
    Blend: 6-311PPGSS + DEF2-TZVPP
  Basis Set: (ANONYMOUS58475730 AUX)
    Blend: AUG-CC-PVTZ-JKFIT + DEF2-TZVPP-JKFIT
  @DF-RKS Final Energy: -7990.30677415739046
    Total Energy =                      -7990.3067741573904641
  Basis Set: ANONYMOUS58475730
    Blend: 6-311PPGSS + DEF2-TZVPP
  Basis Set: (ANONYMOUS58475730 AUX)
    Blend: AUG-CC-PVTZ-JKFIT + DEF2-TZVPP-JKFIT
  Basis Set: ANONYMOUS58475730
    Blend: 6-311PPGSS + DEF2-TZVPP
  @DF-RKS Final Energy: -7990.30743566521869
    Total Energy =                      -7990.3074356652186907
  @DF-RKS Final Energy: -7990.30762308278190
    Total Energy =                      -7990.3076230827819018
  @DF-RKS Final Energy: -7990.30799474165451
    Total Energy =                      -7990.3079947416545110
  @DF-RKS Final Energy: -7990.30835304263201
    Total Energy =                      -7990.3083530426320067
  @DF-RKS Final Energy: -7990.30827246270655
    Total Energy =                      -7990.3082724627065545
  @DF-RKS Final Energy: -7990.30865475005976
    Total Energy =                      -7990.3086547500597590
  @DF-RKS Final Energy: -7990.30875333703079
    Total Energy =                      -7990.3087533370307938
  @DF-RKS Final Energy: -7990.30882326046958
    Total Energy =                      -7990.3088232604695804
  @DF-RKS Final Energy: -7990.30883764725877
    Total Energy =                      -7990.3088376472587697
  Basis Set: (ANONYMOUS58475730 AUX)
    Blend: AUG-CC-PVTZ-JKFIT + DEF2-TZVPP-JKFIT
  Basis Set: ANONYMOUS58475730
    Blend: 6-311PPGSS + DEF2-TZVPP
  Basis Set: (ANONYMOUS58475730 AUX)
    Blend: AUG-CC-PVTZ-JKFIT + DEF2-TZVPP-JKFIT
  @DF-RKS Final Energy: -7990.30884190525376
    Total Energy =                      -7990.3088419052537574
  Basis Set: ANONYMOUS58475730
    Blend: 6-311PPGSS + DEF2-TZVPP
  Basis Set: (ANONYMOUS58475730 AUX)
    Blend: AUG-CC-PVTZ-JKFIT + DEF2-TZVPP-JKFIT
  Charge       = 0
  Multiplicity = 1
  Basis Set: ANONYMOUS58475730
    Blend: 6-311PPGSS + DEF2-TZVPP
  Basis Set: (ANONYMOUS58475730 AUX)
    Blend: AUG-CC-PVTZ-JKFIT + DEF2-TZVPP-JKFIT

    Orbital Energies [Eh]
    ---------------------

    Doubly Occupied:

       1A   -485.396351     2A   -485.392723     3A   -485.392643
       4A    -63.381773     5A    -63.378167     6A    -63.378090
       7A    -57.200243     8A    -57.197588     9A    -57.197454
      10A    -57.196687    11A    -57.196609    12A    -57.193916
      13A    -57.193854    14A    -57.193845    15A    -57.193754
      16A    -19.655669    17A    -19.654929    18A    -10.714102
      19A    -10.682691    20A    -10.596277    21A     -9.047140
      22A     -9.043601    23A     -9.043530    24A     -6.871639
      25A     -6.868307    26A     -6.868232    27A     -6.861938
      28A     -6.861460    29A     -6.858173    30A     -6.858152
      31A     -6.857920    32A     -6.857806    33A     -2.905471
      34A     -2.902142    35A     -2.902125    36A     -2.902061
      37A     -2.901673    38A     -2.898558    39A     -2.898546
      40A     -2.898336    41A     -2.898206    42A     -2.892629
      43A     -2.892620    44A     -2.888882    45A     -2.888875
      46A     -2.888813    47A     -2.888806    48A     -1.233666
      49A     -1.157343    50A     -0.985644    51A     -0.875802
      52A     -0.872471    53A     -0.844819    54A     -0.769396
      55A     -0.696603    56A     -0.624820    57A     -0.604165
      58A     -0.580203    59A     -0.533117    60A     -0.524495
      61A     -0.488771    62A     -0.484006    63A     -0.472466
      64A     -0.419803    65A     -0.414295    66A     -0.391484
      67A     -0.384784    68A     -0.370870    69A     -0.365718
      70A     -0.354767    71A     -0.348477    72A     -0.338013

  @DF-RKS Final Energy: -7990.30884191205041

   => Energetics <=

    Nuclear Repulsion Energy =           1473.0003839707082989
    One-Electron Energy =              -14051.6559629427392792
    Two-Electron Energy =                4734.4065828994453113
    DFT Exchange-Correlation Energy =    -146.0598458394641455
    Empirical Dispersion Energy =           0.0000000000000000
    VV10 Nonlocal Energy =                  0.0000000000000000
    Total Energy =                      -7990.3088419120504113

  Dipole Moment: [D]
     X:     0.5830      Y:     1.3113      Z:    -1.2224     Total:     1.8851

    Molecular point group: c1
  Basis Set: ANONYMOUS58475730
    Blend: 6-311PPGSS + DEF2-TZVPP
  Basis Set: (ANONYMOUS58475730 AUX)
    Blend: AUG-CC-PVTZ-JKFIT + DEF2-TZVPP-JKFIT

  -Total Gradient:
     Atom            X                  Y                   Z
    ------   -----------------  -----------------  -----------------
       1        0.000083851876     0.000066160644    -0.000075274581
       2        0.000021667831     0.000005078497    -0.000128701206
       3        0.000137657622     0.000086354357    -0.000050670683
       4       -0.000069401081    -0.000003495098    -0.000107810844
       5       -0.000048147794     0.000081319647    -0.000078990615
       6       -0.000025316121     0.000083942196    -0.000008277545
       7       -0.000009965394     0.000097561933    -0.000094189736
       8       -0.000032169979     0.000130884185    -0.000089179813
       9        0.000021454161     0.000034106545    -0.000124910719
      10        0.000018798457     0.000017488077    -0.000104938545
      11        0.000022027628    -0.000157689944    -0.000255473860
      12        0.000093268349     0.000123633302    -0.000152462168
      13        0.000034185653     0.000066077013    -0.000118918817

  **** Optimization is complete! (in 13 steps) ****
    Final optimized geometry and variables:
    Molecular point group: c1

    Geometry (in Angstrom), charge = 0, multiplicity = 1:

    C            0.451831934907     0.525306089802    -1.439318338218
    O           -0.475182084592     0.240412111683    -2.430649354148
    BR           1.444638124659     0.283791294842     1.228533694417
    BR          -1.633788306516     0.716228693203     0.520096114461
    H            1.345075049656     3.579093023709    -2.084141676866
    C            1.295672489750     2.520840970798    -2.329966469453
    H            0.749481405028     2.383437745690    -3.266023280480
    H            2.310715469399     2.123751939036    -2.435830907300
    O            0.625050858424     1.886190839804    -1.251482182183
    H           -1.315816076499     0.646709314008    -2.180861252246
    C            0.046719455259    -0.078036145315    -0.065344020232
    BR          -0.171187619362    -1.994322243339    -0.269738447547
    H            1.384966912070     0.034915745568    -1.742240312356

*** Psi4 exiting successfully. Buy a developer a beer!
