                               Psi4 1.2.1 release

  ==> Input File <==

--------------------------------------------------------------------------

molecule{
0 1
 C   -2.025232697504   -0.196820305082    0.358068941172
 O   -2.179691628154   -0.071956239057    1.549586104234
 O   -2.724311173849   -0.145618794226   -0.701292182435
 N   -0.624105719619   -0.451865634995   -0.307614993256
 H   -1.259627077895   -0.298003699066   -1.196719694204
 H   -0.338760299353   -1.434806398986   -0.221616668959
 C    0.478017634536    0.433524876955    0.117145543422
 H    0.367392590836    0.576479602713    1.203230318541
 C    1.792471012524   -0.309042575128   -0.092931904384
 O    1.874535867907   -1.488414296471   -0.367352390607
 O    2.861395191279    0.485464007916    0.098436199785
 H    3.658319001411   -0.058891823517   -0.008757979671
 C    0.406188046922    1.791757776972   -0.585893508529
 H   -0.561172968375    2.262982586638   -0.386655182922
 H    1.194547379163    2.451472863587   -0.217030777295
 H    0.521633309150    1.676932165476   -1.669124144430
}

set basis 6-31+G*
set_num_threads(16)
e, wfn = properties('mp2', return_wfn=True)

d = wfn.Da().to_array()
s = wfn.S().to_array()
c = wfn.Ca().to_array()
occs = c.T.dot(s.dot(d).dot(s).dot(c))

molden(wfn, 'mp2.molden', density_a = psi4.core.Matrix.from_array(occs))
--------------------------------------------------------------------------

    Molecular point group: c1
  Charge       = 0
  Multiplicity = 1
  Basis Set: 6-31+G*
    Blend: 6-31+G*
  Basis Set: (6-31+G* AUX)
    Blend: HEAVY-AUG-CC-PVDZ-JKFIT

    Orbital Energies [Eh]
    ---------------------

    Doubly Occupied:

       1A    -20.675050     2A    -20.618746     3A    -20.560309
       4A    -20.543941     5A    -15.682296     6A    -11.449495
       7A    -11.417778     8A    -11.349678     9A    -11.274868
      10A     -1.519212    11A     -1.443246    12A     -1.416574
      13A     -1.349784    14A     -1.283166    15A     -1.091517
      16A     -0.962969    17A     -0.872766    18A     -0.815110
      19A     -0.764603    20A     -0.751045    21A     -0.737192
      22A     -0.714765    23A     -0.672919    24A     -0.663183
      25A     -0.635022    26A     -0.626373    27A     -0.603655
      28A     -0.594855    29A     -0.571869    30A     -0.561095
      31A     -0.529911    32A     -0.503115    33A     -0.459707
      34A     -0.446826    35A     -0.433491

  @DF-RHF Final Energy:  -509.43751116002744

   => Energetics <=

    Nuclear Repulsion Energy =            466.1034104061216112
    One-Electron Energy =               -1621.8895822504305215
    Two-Electron Energy =                 646.3486606842815263
    Total Energy =                       -509.4375111600273840
  Basis Set: (6-31+G* AUX)
    Blend: HEAVY-AUG-CC-PVDZ-RI
    Molecular point group: c1

    Geometry (in Angstrom), charge = 0, multiplicity = 1:

       Center              X                  Y                   Z               Mass
    ------------   -----------------  -----------------  -----------------  -----------------
         C           -2.025232697504    -0.196820305082     0.358068941172    12.000000000000
         O           -2.179691628154    -0.071956239057     1.549586104234    15.994914619560
         O           -2.724311173849    -0.145618794226    -0.701292182435    15.994914619560
         N           -0.624105719619    -0.451865634995    -0.307614993256    14.003074004780
         H           -1.259627077895    -0.298003699066    -1.196719694204     1.007825032070
         H           -0.338760299353    -1.434806398986    -0.221616668959     1.007825032070
         C            0.478017634536     0.433524876955     0.117145543422    12.000000000000
         H            0.367392590836     0.576479602713     1.203230318541     1.007825032070
         C            1.792471012524    -0.309042575128    -0.092931904384    12.000000000000
         O            1.874535867907    -1.488414296471    -0.367352390607    15.994914619560
         O            2.861395191279     0.485464007916     0.098436199785    15.994914619560
         H            3.658319001411    -0.058891823517    -0.008757979671     1.007825032070
         C            0.406188046922     1.791757776972    -0.585893508529    12.000000000000
         H           -0.561172968375     2.262982586638    -0.386655182922     1.007825032070
         H            1.194547379163     2.451472863587    -0.217030777295     1.007825032070
         H            0.521633309150     1.676932165476    -1.669124144430     1.007825032070

  Basis Set: 6-31+G*
    Blend: 6-31+G*
  Basis Set: (6-31+G* AUX)
    Blend: HEAVY-AUG-CC-PVDZ-JKFIT
	 Reference Energy          =    -509.4375111600274408 [Eh]
	 Singles Energy            =      -0.0000000000000000 [Eh]
	 Same-Spin Energy          =      -0.3970109394990705 [Eh]
	 Opposite-Spin Energy      =      -1.0635138647360878 [Eh]
	 Correlation Energy        =      -1.4605248042351584 [Eh]
	 Total Energy              =    -510.8980359642625899 [Eh]

	 ================> DF-SCS-MP2 Energies <==================
	-----------------------------------------------------------
	 SCS Same-Spin Scale       =       0.3333333333333333 [-]
	 SCS Opposite-Spin Scale   =       1.2000000000000000 [-]
	 SCS Same-Spin Energy      =      -0.1323369798330235 [Eh]
	 SCS Opposite-Spin Energy  =      -1.2762166376833053 [Eh]
	 SCS Correlation Energy    =      -1.4085536175163287 [Eh]
	 SCS Total Energy          =    -510.8460647775437451 [Eh]
	-----------------------------------------------------------

  Dipole Moment: [D]
     X:     6.8105      Y:     0.9423      Z:    -1.5373     Total:     7.0452

*** Psi4 exiting successfully. Buy a developer a beer!
