                               Psi4 1.2.1 release

  ==> Input File <==

--------------------------------------------------------------------------
molecule{
0 1
C        0.0397475615     -0.5601155969     -1.1716793934
O       -0.9007364085     -0.5770974240     -1.8962151241
Cl       1.4040755200      0.2542511469      1.0306578900
Cl      -1.4963312232      0.4927952548      0.8341950153
C       -0.0823526802     -0.4440125209      0.3697303229
Cl      -0.2414910959     -2.1337839583      0.9346910667
H        1.0835094677     -0.7057737514     -1.4996380518
}

set{
   basis 6-311++G(d,p)
   freeze_core True
   cubeprop_tasks ['ESP']
}

set_num_threads(32)
e, wfn = energy('m06-2x', return_wfn=True)
cubeprop(wfn)
--------------------------------------------------------------------------

    Molecular point group: c1

    Geometry (in Angstrom), charge = 0, multiplicity = 1:

       Center              X                  Y                   Z               Mass
    ------------   -----------------  -----------------  -----------------  -----------------
         C            0.214494602725    -0.077047825834    -1.558442135735    12.000000000000
         O           -0.725989367275    -0.094029652934    -2.282977866435    15.994914619560
         CL           1.578822561225     0.737318917966     0.643895147665    34.968852682000
         CL          -1.321584181975     0.975863025866     0.447432272965    34.968852682000
         C            0.092394361025     0.039055250166    -0.017032419435    12.000000000000
         CL          -0.066744054675    -1.650716187234     0.547928324365    34.968852682000
         H            1.258256508925    -0.222705980334    -1.886400794135     1.007825032070

  Charge       = 0
  Multiplicity = 1
  Basis Set: 6-311++G(D,P)
    Blend: 6-311++G(D,P)
  Basis Set: (6-311++G(D,P) AUX)
    Blend: AUG-CC-PVTZ-JKFIT

    Orbital Energies [Eh]
    ---------------------

    Doubly Occupied:

       1A   -102.716941     2A   -102.714167     3A   -102.711054
       4A    -19.680223     5A    -10.750044     6A    -10.685857
       7A     -9.859579     8A     -9.856566     9A     -9.853574
      10A     -7.584907    11A     -7.581940    12A     -7.579090
      13A     -7.577515    14A     -7.577467    15A     -7.574506
      16A     -7.574302    17A     -7.571460    18A     -7.571301
      19A     -1.237985    20A     -1.074054    21A     -0.960625
      22A     -0.957497    23A     -0.813105    24A     -0.689486
      25A     -0.616902    26A     -0.587453    27A     -0.576186
      28A     -0.545459    29A     -0.506776    30A     -0.440154
      31A     -0.438810    32A     -0.434214    33A     -0.406107
      34A     -0.403828    35A     -0.389341    36A     -0.373658

  @DF-RKS Final Energy: -1532.57797047273812

   => Energetics <=

    Nuclear Repulsion Energy =            432.9709876960253609
    One-Electron Energy =               -2973.9283853019414892
    Two-Electron Energy =                1057.9801146699767287
    DFT Exchange-Correlation Energy =     -49.6006875367988940
    Empirical Dispersion Energy =           0.0000000000000000
    VV10 Nonlocal Energy =                  0.0000000000000000
    Total Energy =                      -1532.5779704727381159

  Dipole Moment: [D]
     X:     1.6638      Y:     0.0379      Z:     0.2690     Total:     1.6858

  Basis Set: 6-311++G(D,P)
    Blend: 6-311++G(D,P)
*** Psi4 exiting successfully. Buy a developer a beer!
