                         Program Version 4.1.1  - RELEASE  -
|  1> !UKS B3LYP SV(P) TightSCF KDIIS SOSCF OPT
|  2>
|  3> *xyz 0 1
|  4>   C      -0.067565      0.297307     -0.061055
|  5>   O      -1.215925      0.116462     -0.103963
|  6>   O       1.083644      0.454964     -0.013826
|  7>   H       0.328279     -1.972712      0.397688
|  8>   H      -0.424748     -1.889982      0.331084
|  9> *
| 10>
| 11>                          ****END OF INPUT****
 Total Charge           Charge          ....    0
 Multiplicity           Mult            ....    1
 Number of Electrons    NEL             ....   24
FINAL SINGLE POINT ENERGY      -189.518020128922
FINAL SINGLE POINT ENERGY      -189.519828519222
FINAL SINGLE POINT ENERGY      -189.521241391554
FINAL SINGLE POINT ENERGY      -189.522324640205
FINAL SINGLE POINT ENERGY      -189.523145703224
FINAL SINGLE POINT ENERGY      -189.523761125201
FINAL SINGLE POINT ENERGY      -189.524215810180
FINAL SINGLE POINT ENERGY      -189.524543590584
FINAL SINGLE POINT ENERGY      -189.524766990797
FINAL SINGLE POINT ENERGY      -189.524909472677
FINAL SINGLE POINT ENERGY      -189.525042745776
FINAL SINGLE POINT ENERGY      -189.525043298795
FINAL SINGLE POINT ENERGY      -189.525044183741
FINAL SINGLE POINT ENERGY      -189.525046240138
FINAL SINGLE POINT ENERGY      -189.525050020998
FINAL SINGLE POINT ENERGY      -189.525055058287
FINAL SINGLE POINT ENERGY      -189.525058621069
FINAL SINGLE POINT ENERGY      -189.525059404957
FINAL SINGLE POINT ENERGY      -189.525059473956
                    ***********************HURRAY********************

CARTESIAN COORDINATES (ANGSTROEM)
---------------------------------
  C     -0.097471    0.609958   -0.122717
  O     -1.255766    0.520229   -0.183414
  O      1.060662    0.700379   -0.062030
  H      0.379144   -2.423764    0.487013
  H     -0.382884   -2.400763    0.431076

 Multiplicity           Mult            ....    1
 Number of Electrons    NEL             ....   24
 Basis Dimension        Dim             ....   46

ORBITAL ENERGIES
----------------
                 SPIN UP ORBITALS
  NO   OCC          E(Eh)            E(eV)
   0   1.0000     -19.214193      -522.8448
   1   1.0000     -19.214121      -522.8428
   2   1.0000     -10.375786      -282.3395
   3   1.0000      -1.146638       -31.2016
   4   1.0000      -1.107832       -30.1457
   5   1.0000      -0.550539       -14.9809
   6   1.0000      -0.516356       -14.0508
   7   1.0000      -0.515565       -14.0292
   8   1.0000      -0.513702       -13.9786
   9   1.0000      -0.431034       -11.7290
  10   1.0000      -0.369897       -10.0654
  11   1.0000      -0.369669       -10.0592
  12   0.0000       0.034098         0.9279
  13   0.0000       0.034537         0.9398
  14   0.0000       0.062942         1.7127
  15   0.0000       0.068809         1.8724
  16   0.0000       0.327475         8.9111

                 SPIN DOWN ORBITALS
  NO   OCC          E(Eh)            E(eV)
   0   1.0000     -19.214193      -522.8448
   1   1.0000     -19.214121      -522.8428
   2   1.0000     -10.375786      -282.3395
   3   1.0000      -1.146638       -31.2016
   4   1.0000      -1.107832       -30.1457
   5   1.0000      -0.550539       -14.9809
   6   1.0000      -0.516356       -14.0508
   7   1.0000      -0.515565       -14.0292
   8   1.0000      -0.513702       -13.9786
   9   1.0000      -0.431034       -11.7290
  10   1.0000      -0.369897       -10.0654
  11   1.0000      -0.369669       -10.0592
  12   0.0000       0.034098         0.9279
  13   0.0000       0.034537         0.9398
  14   0.0000       0.062942         1.7127
  15   0.0000       0.068809         1.8724
  16   0.0000       0.327475         8.9111

MULLIKEN ATOMIC CHARGES AND SPIN POPULATIONS
--------------------------------------------
   0 C :    0.264253    0.000000
   1 O :   -0.133357    0.000000
   2 O :   -0.132190    0.000000
   3 H :   -0.000602    0.000000
   4 H :    0.001897    0.000000
Sum of atomic charges         :    0.0000000

LOEWDIN ATOMIC CHARGES AND SPIN POPULATIONS
-------------------------------------------
   0 C :    0.134090    0.000000
   1 O :   -0.067459    0.000000
   2 O :   -0.066837    0.000000
   3 H :   -0.000187    0.000000
   4 H :    0.000393    0.000000

  Mayer bond orders larger than 0.1
B(  0-C ,  1-O ) :   2.1666 B(  0-C ,  2-O ) :   2.1704 B(  1-O ,  2-O ) :   0.2688
B(  3-H ,  4-H ) :   0.9918

FINAL SINGLE POINT ENERGY      -189.525059479846

DIPOLE MOMENT
-------------
                                X             Y             Z
Electronic contribution:     -0.17060       5.40744      -1.04075
Nuclear contribution   :      0.17150      -5.41889       1.04303
                        -----------------------------------------
Total Dipole Moment    :      0.00090      -0.01145       0.00228
                        -----------------------------------------
Magnitude (a.u.)       :      0.01171
Magnitude (Debye)      :      0.02977

Rotational constants in cm-1:     0.923892     0.386378     0.272441
Rotational constants in MHz : 27697.574674 11583.332573  8167.586810

                             ****ORCA TERMINATED NORMALLY****
TOTAL RUN TIME: 0 days 0 hours 1 minutes 25 seconds 374 msec
