                               Psi4 1.2.1 release

  ==> Input File <==

--------------------------------------------------------------------------
molecule{
0 1
C   0.3824750053   1.1006329659  -0.1401508143
O  -0.6428047629   1.9669889733  -0.8917598196
C  -2.1492976296   1.0025428673   0.4234619140
H  -2.7317450651   1.1050231186   1.3328873704
N  -1.6965026004   2.1195748200  -0.0660923197
O  -0.1011873674   0.6027601730   0.9018126282
N   1.4607640249   1.0876556520  -0.7868265270
C  -1.6481627756   3.3494283343   0.7089169564
H  -1.5941820419   4.1830556385   0.0157617277
H  -2.5466944109   3.4262911772   1.3153514685
H  -0.7570232406   3.3276487997   1.3373885599
C   2.5215276858   0.2751737951  -0.2158712284
H   3.0454393869  -0.2413919177  -1.0199725255
H   3.2528751766   0.9103219959   0.2896704078
H   2.1570931806  -0.4628309039   0.5041217229
C  -2.2686668560  -0.2536170152  -0.3521129207
H  -2.0281237045  -1.0944189911   0.2932404368
H  -3.3074397081  -0.3529036594  -0.6785083277
H  -1.6106314270  -0.2518920937  -1.2149668798
}

set{
   basis 6-31+G(d)
   freeze_core True
   opt_type ts
}

optimize('mp2')
--------------------------------------------------------------------------

    Molecular point group: c1
  Charge       = 0
  Multiplicity = 1
  Basis Set: 6-31+G(D)
    Blend: 6-31+G(D)
  Basis Set: (6-31+G(D) AUX)
    Blend: HEAVY-AUG-CC-PVDZ-JKFIT
  @DF-RHF Final Energy:  -453.66173555512103
    Total Energy =                       -453.6617355551210267
  Basis Set: (6-31+G(D) AUX)
    Blend: HEAVY-AUG-CC-PVDZ-RI
    Molecular point group: c1
  Basis Set: 6-31+G(D)
    Blend: 6-31+G(D)
  Basis Set: (6-31+G(D) AUX)
    Blend: HEAVY-AUG-CC-PVDZ-JKFIT
  Basis Set: (6-31+G(D) AUX)
    Blend: HEAVY-AUG-CC-PVDZ-JKFIT
	 Reference Energy          =    -453.6617355551210267 [Eh]
	 Singles Energy            =      -0.0000000000000001 [Eh]
	 Same-Spin Energy          =      -0.3592700068272059 [Eh]
	 Opposite-Spin Energy      =      -0.9961568732017925 [Eh]
	 Correlation Energy        =      -1.3554268800289984 [Eh]
	 Total Energy              =    -455.0171624351499986 [Eh]
	 SCS Total Energy          =    -454.9768804719055879 [Eh]
  @DF-RHF Final Energy:  -453.65704682945443
    Total Energy =                       -453.6570468294544298
  @DF-RHF Final Energy:  -453.65181279237112
    Total Energy =                       -453.6518127923711745
  @DF-RHF Final Energy:  -453.65108666922015
    Total Energy =                       -453.6510866692201489
  @DF-RHF Final Energy:  -453.65569339799055
    Total Energy =                       -453.6556933979906034
  @DF-RHF Final Energy:  -453.65627825551553
    Total Energy =                       -453.6562782555155309
  @DF-RHF Final Energy:  -453.65212904303155
    Total Energy =                       -453.6521290430315503
  @DF-RHF Final Energy:  -453.65240341117897
    Total Energy =                       -453.6524034111789661
  @DF-RHF Final Energy:  -453.65001948378813
    Total Energy =                       -453.6500194837881281
  @DF-RHF Final Energy:  -453.65578127217668
    Total Energy =                       -453.6557812721766823
  @DF-RHF Final Energy:  -453.65570658140507
    Total Energy =                       -453.6557065814050702
  @DF-RHF Final Energy:  -453.65352182800405
    Total Energy =                       -453.6535218280040453
  @DF-RHF Final Energy:  -453.65578696210673
    Total Energy =                       -453.6557869621067312
  @DF-RHF Final Energy:  -453.65208315321530
    Total Energy =                       -453.6520831532152442
  @DF-RHF Final Energy:  -453.65593754956848
    Total Energy =                       -453.6559375495684208
  @DF-RHF Final Energy:  -453.65258642303007
    Total Energy =                       -453.6525864230300158
  @DF-RHF Final Energy:  -453.65585587221244
    Total Energy =                       -453.6558558722124417
  @DF-RHF Final Energy:  -453.65526236016905
    Total Energy =                       -453.6552623601689902
  @DF-RHF Final Energy:  -453.65596351337359
    Total Energy =                       -453.6559635133735355
  @DF-RHF Final Energy:  -453.65592428638797
    Total Energy =                       -453.6559242863879717
  @DF-RHF Final Energy:  -453.65110837191810
    Total Energy =                       -453.6511083719180988
  @DF-RHF Final Energy:  -453.65568083435994
    Total Energy =                       -453.6556808343599414
  @DF-RHF Final Energy:  -453.65514105350826
    Total Energy =                       -453.6551410535082596
  @DF-RHF Final Energy:  -453.65585521577782
    Total Energy =                       -453.6558552157778195
  @DF-RHF Final Energy:  -453.65591225788205
    Total Energy =                       -453.6559122578820507
  @DF-RHF Final Energy:  -453.65172948520171
    Total Energy =                       -453.6517294852017130
  @DF-RHF Final Energy:  -453.65578640648459
    Total Energy =                       -453.6557864064845944
  @DF-RHF Final Energy:  -453.65450131363463
    Total Energy =                       -453.6545013136346824
  @DF-RHF Final Energy:  -453.65585889536658
    Total Energy =                       -453.6558588953665776
  @DF-RHF Final Energy:  -453.65589368296020
    Total Energy =                       -453.6558936829601407
  @DF-RHF Final Energy:  -453.65116606195329
    Total Energy =                       -453.6511660619532904
  @DF-RHF Final Energy:  -453.65556287275342
    Total Energy =                       -453.6555628727534213
  @DF-RHF Final Energy:  -453.65515277217798
    Total Energy =                       -453.6551527721779848
  @DF-RHF Final Energy:  -453.65589421446936
    Total Energy =                       -453.6558942144694129
  Charge       = 0
  Multiplicity = 1
  Basis Set: 6-31+G(D)
    Blend: 6-31+G(D)
  Basis Set: (6-31+G(D) AUX)
    Blend: HEAVY-AUG-CC-PVDZ-JKFIT

    Orbital Energies [Eh]
    ---------------------

    Doubly Occupied:

       1A    -20.627604     2A    -20.545670     3A    -15.696838
       4A    -15.513962     5A    -11.390531     6A    -11.366300
       7A    -11.296568     8A    -11.267345     9A    -11.220196
      10A     -1.485783    11A     -1.350388    12A     -1.229445
      13A     -1.163764    14A     -1.077627    15A     -0.976557
      16A     -0.913514    17A     -0.837762    18A     -0.762079
      19A     -0.728472    20A     -0.699502    21A     -0.678266
      22A     -0.632309    23A     -0.618062    24A     -0.612792
      25A     -0.592569    26A     -0.588897    27A     -0.576901
      28A     -0.567940    29A     -0.534644    30A     -0.528411
      31A     -0.493786    32A     -0.456869    33A     -0.439189
      34A     -0.379988    35A     -0.336792

  @DF-RHF Final Energy:  -453.65589703357756

   => Energetics <=

    Nuclear Repulsion Energy =            484.6791834740941454
    One-Electron Energy =               -1580.2955200662081552
    Two-Electron Energy =                 641.9604395585365637
    Total Energy =                       -453.6558970335775030

  Dipole Moment: [D]
     X:    -5.8078      Y:    -0.0149      Z:     3.7306     Total:     6.9027

  Basis Set: (6-31+G(D) AUX)
    Blend: HEAVY-AUG-CC-PVDZ-RI
    Molecular point group: c1
  Basis Set: 6-31+G(D)
    Blend: 6-31+G(D)
  Basis Set: (6-31+G(D) AUX)
    Blend: HEAVY-AUG-CC-PVDZ-JKFIT
  Basis Set: (6-31+G(D) AUX)
    Blend: HEAVY-AUG-CC-PVDZ-JKFIT
	 Reference Energy          =    -453.6558970335775598 [Eh]
	 Singles Energy            =      -0.0000000000000002 [Eh]
	 Same-Spin Energy          =      -0.3609869229138212 [Eh]
	 Opposite-Spin Energy      =      -1.0024654659655126 [Eh]
	 Correlation Energy        =      -1.3634523888793340 [Eh]
	 Total Energy              =    -455.0193494224569122 [Eh]

	 ================> DF-SCS-MP2 Energies <==================
	-----------------------------------------------------------
	 SCS Same-Spin Scale       =       0.3333333333333333 [-]
	 SCS Opposite-Spin Scale   =       1.2000000000000000 [-]
	 SCS Same-Spin Energy      =      -0.1203289743046071 [Eh]
	 SCS Opposite-Spin Energy  =      -1.2029585591586149 [Eh]
	 SCS Correlation Energy    =      -1.3232875334632221 [Eh]
	 SCS Total Energy          =    -454.9791845670407611 [Eh]
	-----------------------------------------------------------

  -Total Gradient:
     Atom            X                  Y                   Z
    ------   -----------------  -----------------  -----------------
       1        0.000051355474    -0.000042247313     0.000001221009
       2       -0.000011410562     0.000033484930    -0.000018786633
       3        0.000010468053    -0.000008757333     0.000022980113
       4       -0.000007742483     0.000001816545    -0.000002119276
       5        0.000000880154    -0.000004091612    -0.000005038837
       6       -0.000015288260     0.000010407144    -0.000000861084
       7       -0.000020637553     0.000013861711     0.000013724874
       8        0.000002495093    -0.000003362267    -0.000001422256
       9       -0.000000926097    -0.000000955956    -0.000002726709
      10       -0.000000483448    -0.000004479309    -0.000001932510
      11       -0.000001411000    -0.000003661074    -0.000001402633
      12        0.000017809769    -0.000011013843     0.000001115822
      13       -0.000004326416    -0.000000640425    -0.000004879557
      14       -0.000008541444     0.000009091714     0.000001365598
      15       -0.000010020556     0.000003858560    -0.000002674893
      16       -0.000005729879     0.000002689948    -0.000001488448
      17        0.000000606119     0.000002102022     0.000001231806
      18        0.000001948973     0.000000625684     0.000001818801
      19        0.000000954062     0.000001270874    -0.000000125187

  **** Optimization is complete! (in 35 steps) ****
    Final optimized geometry and variables:
    Molecular point group: c1

    Geometry (in Angstrom), charge = 0, multiplicity = 1:

    C            0.811580336497    -0.124634181555    -0.260510086364
    O           -0.364471495023     0.767971569374    -0.798959571635
    C           -1.568302374920    -0.333362835762     0.729817345686
    H           -1.975322286299    -0.307097463287     1.740649404246
    N           -1.253830822057     0.843192549785     0.235858782153
    O            0.499825810587    -0.734344144268     0.810883157421
    N            1.795452632562    -0.029413844184    -1.067968023524
    C           -1.063160988176     2.027823787532     1.069913515338
    H           -1.167983393922     2.902719484811     0.429114500978
    H           -1.826213365913     2.036934509191     1.849983007916
    H           -0.058645787040     1.994040324688     1.502194332139
    C            2.945515185481    -0.862535846558    -0.704572726705
    H            3.531243081885    -1.047657558084    -1.607806122951
    H            3.587029276640    -0.340716622580     0.016089390371
    H            2.646880975375    -1.822507507368    -0.263330463882
    C           -1.848673313920    -1.527890094426    -0.110108022860
    H           -1.521507165763    -2.424552992305     0.419907730297
    H           -2.933880463659    -1.593259477446    -0.266489000101
    H           -1.346128067338    -1.467786969069    -1.074905430339

*** Psi4 exiting successfully. Buy a developer a beer!
