                               Psi4 1.2.1 release

  ==> Input File <==

--------------------------------------------------------------------------
molecule{
0 1
 C    0.003916906300   -0.495535423415    0.087199216619
 O   -1.070251505374   -0.830860076314   -0.756316519180
 H    0.663518532178   -0.725094961812    2.118235598461
 H   -1.065197551471   -0.388052115686    1.943518160060
 H    1.063523795999    2.433181673153   -0.907939247508
 C    1.158070316780    1.349923124039   -0.851553443293
 H    0.969086422558    0.921532725810   -1.840785812053
 H    2.175348219966    1.096934691367   -0.532236698697
 O    0.213028001525    0.892773635353    0.095502956123
 H   -1.830192523358   -0.317420862115   -0.467502455049
 C   -0.221724824326   -0.937637322916    1.517750611350
 H   -0.437151885709   -2.005796076663    1.550452363744
 H    0.870280768005   -1.006659194950   -0.346712805908
}

set{
   basis 6-311++G(d,p)
   freeze_core True
}

set_num_threads(32)
optimize('m06-2x')
--------------------------------------------------------------------------

    Molecular point group: c1
  Charge       = 0
  Multiplicity = 1
  Basis Set: 6-311++G(D,P)
    Blend: 6-311++G(D,P)
  Basis Set: (6-311++G(D,P) AUX)
    Blend: AUG-CC-PVTZ-JKFIT
  @DF-RKS Final Energy:  -269.53402923802361
    Total Energy =                       -269.5340292380236065
    Molecular point group: c1
  Basis Set: 6-311++G(D,P)
    Blend: 6-311++G(D,P)
  Basis Set: (6-311++G(D,P) AUX)
    Blend: AUG-CC-PVTZ-JKFIT
  Basis Set: 6-311++G(D,P)
    Blend: 6-311++G(D,P)
  Basis Set: (6-311++G(D,P) AUX)
    Blend: AUG-CC-PVTZ-JKFIT
  @DF-RKS Final Energy:  -269.53446142257633
    Total Energy =                       -269.5344614225763280
  Basis Set: 6-311++G(D,P)
    Blend: 6-311++G(D,P)
  Basis Set: (6-311++G(D,P) AUX)
    Blend: AUG-CC-PVTZ-JKFIT
  Basis Set: 6-311++G(D,P)
    Blend: 6-311++G(D,P)
  @DF-RKS Final Energy:  -269.53648678556800
    Total Energy =                       -269.5364867855680018
  @DF-RKS Final Energy:  -269.53677518097066
    Total Energy =                       -269.5367751809706078
  @DF-RKS Final Energy:  -269.53694250094071
    Total Energy =                       -269.5369425009407109
  @DF-RKS Final Energy:  -269.53704346178034
    Total Energy =                       -269.5370434617803426
  @DF-RKS Final Energy:  -269.53708658538750
    Total Energy =                       -269.5370865853874989
  Basis Set: (6-311++G(D,P) AUX)
    Blend: AUG-CC-PVTZ-JKFIT
  Basis Set: 6-311++G(D,P)
    Blend: 6-311++G(D,P)
  Basis Set: (6-311++G(D,P) AUX)
    Blend: AUG-CC-PVTZ-JKFIT
  @DF-RKS Final Energy:  -269.53708916375041
    Total Energy =                       -269.5370891637504087
  Basis Set: 6-311++G(D,P)
    Blend: 6-311++G(D,P)
  Basis Set: (6-311++G(D,P) AUX)
    Blend: AUG-CC-PVTZ-JKFIT
  Charge       = 0
  Multiplicity = 1
  Basis Set: 6-311++G(D,P)
    Blend: 6-311++G(D,P)
  Basis Set: (6-311++G(D,P) AUX)
    Blend: AUG-CC-PVTZ-JKFIT

    Orbital Energies [Eh]
    ---------------------

    Doubly Occupied:

       1A    -19.629678     2A    -19.628520     3A    -10.639810
       4A    -10.576384     5A    -10.531432     6A     -1.198660
       7A     -1.127701     8A     -0.859855     9A     -0.773522
      10A     -0.713460    11A     -0.600871    12A     -0.575348
      13A     -0.549822    14A     -0.507020    15A     -0.501425
      16A     -0.456385    17A     -0.449813    18A     -0.438555
      19A     -0.385137    20A     -0.376252    21A     -0.348649

  @DF-RKS Final Energy:  -269.53708929928928

   => Energetics <=

    Nuclear Repulsion Energy =            198.8450074738636602
    One-Electron Energy =                -760.5638127831200563
    Two-Electron Energy =                 309.7352080015423894
    DFT Exchange-Correlation Energy =     -17.5534919915752923
    Empirical Dispersion Energy =           0.0000000000000000
    VV10 Nonlocal Energy =                  0.0000000000000000
    Total Energy =                       -269.5370892992892777

  Dipole Moment: [D]
     X:     0.0196      Y:     0.1373      Z:     0.3737     Total:     0.3986

    Molecular point group: c1
  Basis Set: 6-311++G(D,P)
    Blend: 6-311++G(D,P)
  Basis Set: (6-311++G(D,P) AUX)
    Blend: AUG-CC-PVTZ-JKFIT

  -Total Gradient:
     Atom            X                  Y                   Z
    ------   -----------------  -----------------  -----------------
       1        0.000023614383     0.000079096226     0.000031975277
       2       -0.000042095502    -0.000028156432    -0.000023924149
       3       -0.000011482603     0.000013953461     0.000000596690
       4       -0.000008541475     0.000020578949    -0.000007601813
       5       -0.000004193209     0.000017469759    -0.000005141463
       6        0.000016928776     0.000037558666    -0.000053611433
       7       -0.000020813645     0.000006304238    -0.000001423376
       8       -0.000001895266     0.000003895952    -0.000004874208
       9       -0.000046650292    -0.000022112862     0.000040970981
      10       -0.000026697495     0.000012328364    -0.000001974015
      11       -0.000015820017    -0.000011678177    -0.000007844893
      12       -0.000008830329     0.000012012566     0.000004042037
      13       -0.000022826367    -0.000002723854    -0.000002615825

  **** Optimization is complete! (in 9 steps) ****
    Final optimized geometry and variables:
    Molecular point group: c1

    Geometry (in Angstrom), charge = 0, multiplicity = 1:

    C            0.058391869486    -0.510786623167     0.152068533762
    O           -0.882940171333    -0.782195465514    -0.858201121836
    H            0.343707482885    -0.763567284183     2.268364421387
    H           -1.312586928042    -0.365280004863     1.790697041473
    H            1.169442220387     2.421031547559    -0.754334185447
    C            0.988164911524     1.361963694890    -0.928331148027
    H            0.359769054130     1.235992447128    -1.813333316160
    H            1.945942253503     0.854495682831    -1.094509660852
    O            0.350587725793     0.856500593598     0.229080795854
    H           -1.719585569396    -0.383326544108    -0.596010600292
    C           -0.426052068451    -0.944300852921     1.518178193960
    H           -0.680025869923    -2.004214330757     1.503976389928
    H            0.953913675963    -1.065598909106    -0.154115680528

*** Psi4 exiting successfully. Buy a developer a beer!
