                               Psi4 1.2.1 release

  ==> Input File <==

--------------------------------------------------------------------------
molecule{
0 1
    C           -0.036462680314    -0.723683554130     0.092533024763
    O           -1.095730032479    -0.765226363212    -0.671670906753
    H            0.715155397527    -0.716144352256     2.117684133378
    H           -1.048437370072    -0.461731330943     1.947694249656
    H            1.009426883401     2.456861203234    -1.093603233550
    C            1.205171707811     1.418682068159    -0.827950895574
    H            1.327774003395     0.821422411390    -1.737008204778
    H            2.111309173268     1.366216671251    -0.224377102372
    O            0.108954321354     0.938118808173    -0.056947628683
    H           -0.783230166478     0.533596177120    -0.652826365660
    C           -0.180937356454    -0.997974733242     1.563335646612
    H           -0.352621651038    -2.070300409426     1.684973199517
    H            0.920242285339    -1.066362999473    -0.336706894028

}

set{
   basis 6-311++G(d,p)
   freeze_core True
   normal_modes_write True
}

set_num_threads(16)
frequencies('m06-2x')
--------------------------------------------------------------------------

    Molecular point group: c1
  Charge       = 0
  Multiplicity = 1
  Basis Set: 6-311++G(D,P)
    Blend: 6-311++G(D,P)
  Basis Set: (6-311++G(D,P) AUX)
    Blend: AUG-CC-PVTZ-JKFIT
  @DF-RKS Final Energy:  -269.46092268910076
    Total Energy =                       -269.4609226891007552
    Molecular point group: c1
  Basis Set: 6-311++G(D,P)
    Blend: 6-311++G(D,P)
  Basis Set: (6-311++G(D,P) AUX)
    Blend: AUG-CC-PVTZ-JKFIT
  Basis Set: 6-311++G(D,P)
    Blend: 6-311++G(D,P)
  Basis Set: (6-311++G(D,P) AUX)
    Blend: AUG-CC-PVTZ-JKFIT
  @DF-RKS Final Energy:  -269.46092201301184
    Total Energy =                       -269.4609220130118388
  Basis Set: 6-311++G(D,P)
    Blend: 6-311++G(D,P)
  Basis Set: (6-311++G(D,P) AUX)
    Blend: AUG-CC-PVTZ-JKFIT
  Basis Set: 6-311++G(D,P)
    Blend: 6-311++G(D,P)
  @DF-RKS Final Energy:  -269.46092168147175
    Total Energy =                       -269.4609216814717456
  @DF-RKS Final Energy:  -269.46092249537423
    Total Energy =                       -269.4609224953742341
  @DF-RKS Final Energy:  -269.46092236554415
    Total Energy =                       -269.4609223655441497
  @DF-RKS Final Energy:  -269.46092195839373
    Total Energy =                       -269.4609219583937261
  @DF-RKS Final Energy:  -269.46092187216595
    Total Energy =                       -269.4609218721659545
  @DF-RKS Final Energy:  -269.46092213341927
    Total Energy =                       -269.4609221334192739
  @DF-RKS Final Energy:  -269.46092245389320
    Total Energy =                       -269.4609224538932040
  @DF-RKS Final Energy:  -269.46092293009485
    Total Energy =                       -269.4609229300948527
  @DF-RKS Final Energy:  -269.46092194082070
    Total Energy =                       -269.4609219408206968
  @DF-RKS Final Energy:  -269.46092249605846
    Total Energy =                       -269.4609224960584584
  @DF-RKS Final Energy:  -269.46092246611687
    Total Energy =                       -269.4609224661168696
  @DF-RKS Final Energy:  -269.46091938955198
    Total Energy =                       -269.4609193895519752
  @DF-RKS Final Energy:  -269.46091925238750
    Total Energy =                       -269.4609192523874981
  @DF-RKS Final Energy:  -269.46092168854238
    Total Energy =                       -269.4609216885423848
  @DF-RKS Final Energy:  -269.46092192870333
    Total Energy =                       -269.4609219287033284
  @DF-RKS Final Energy:  -269.46092120116055
    Total Energy =                       -269.4609212011605450
  @DF-RKS Final Energy:  -269.46092097104656
    Total Energy =                       -269.4609209710464484
  @DF-RKS Final Energy:  -269.46091953763812
    Total Energy =                       -269.4609195376381194
  @DF-RKS Final Energy:  -269.46092130835922
    Total Energy =                       -269.4609213083591612
  @DF-RKS Final Energy:  -269.46092346989701
    Total Energy =                       -269.4609234698970113
  @DF-RKS Final Energy:  -269.46092118705235
    Total Energy =                       -269.4609211870523495
  @DF-RKS Final Energy:  -269.46092235958957
    Total Energy =                       -269.4609223595895742
  @DF-RKS Final Energy:  -269.46092209115386
    Total Energy =                       -269.4609220911538614
  @DF-RKS Final Energy:  -269.46092363652934
    Total Energy =                       -269.4609236365293441
  @DF-RKS Final Energy:  -269.46092141698261
    Total Energy =                       -269.4609214169826146
  @DF-RKS Final Energy:  -269.46092045953253
    Total Energy =                       -269.4609204595325309
  @DF-RKS Final Energy:  -269.46092168301618
    Total Energy =                       -269.4609216830161813
  @DF-RKS Final Energy:  -269.46092143258181
    Total Energy =                       -269.4609214325818130
  @DF-RKS Final Energy:  -269.46092217250487
    Total Energy =                       -269.4609221725048656
  @DF-RKS Final Energy:  -269.46092136583854
    Total Energy =                       -269.4609213658385443
  @DF-RKS Final Energy:  -269.46092178075503
    Total Energy =                       -269.4609217807550294
  @DF-RKS Final Energy:  -269.46092092493075
    Total Energy =                       -269.4609209249307469
  @DF-RKS Final Energy:  -269.46091999144318
    Total Energy =                       -269.4609199914432338
  @DF-RKS Final Energy:  -269.46091897204690
    Total Energy =                       -269.4609189720468976
  @DF-RKS Final Energy:  -269.46091880299190
    Total Energy =                       -269.4609188029918982
  @DF-RKS Final Energy:  -269.46092105247811
    Total Energy =                       -269.4609210524781133
  Basis Set: (6-311++G(D,P) AUX)
    Blend: AUG-CC-PVTZ-JKFIT
  Basis Set: 6-311++G(D,P)
    Blend: 6-311++G(D,P)
  Basis Set: (6-311++G(D,P) AUX)
    Blend: AUG-CC-PVTZ-JKFIT
  @DF-RKS Final Energy:  -269.46092070199222
    Total Energy =                       -269.4609207019922223
  Basis Set: 6-311++G(D,P)
    Blend: 6-311++G(D,P)
  Basis Set: (6-311++G(D,P) AUX)
    Blend: AUG-CC-PVTZ-JKFIT
    Molecular point group: c1
  Charge       = 0
  Multiplicity = 1
  Basis Set: 6-311++G(D,P)
    Blend: 6-311++G(D,P)
  Basis Set: (6-311++G(D,P) AUX)
    Blend: AUG-CC-PVTZ-JKFIT

    Orbital Energies [Eh]
    ---------------------

    Doubly Occupied:

       1A    -19.673355     2A    -19.573152     3A    -10.654090
       4A    -10.606080     5A    -10.534831     6A     -1.213076
       7A     -1.099635     8A     -0.848315     9A     -0.807100
      10A     -0.685322    11A     -0.626720    12A     -0.571329
      13A     -0.554836    14A     -0.521821    15A     -0.488154
      16A     -0.479122    17A     -0.448447    18A     -0.443225
      19A     -0.418101    20A     -0.341358    21A     -0.317247

  @DF-RKS Final Energy:  -269.46092268985922

   => Energetics <=

    Nuclear Repulsion Energy =            195.9303156796091514
    One-Electron Energy =                -754.5261333085934439
    Two-Electron Energy =                 306.6673968556746672
    DFT Exchange-Correlation Energy =     -17.5325019165495917
    Empirical Dispersion Energy =           0.0000000000000000
    VV10 Nonlocal Energy =                  0.0000000000000000
    Total Energy =                       -269.4609226898592169

  Dipole Moment: [D]
     X:     3.2830      Y:     1.4721      Z:     0.6506     Total:     3.6563

    Molecular point group: c1

    Geometry (in Angstrom), charge = 0, multiplicity = 1:

       Center              X                  Y                   Z               Mass
    ------------   -----------------  -----------------  -----------------  -----------------
         C           -0.036462680314    -0.723683554130     0.092533024763    12.000000000000
         O           -1.095730032479    -0.765226363212    -0.671670906753    15.994914619560
         H            0.715155397527    -0.716144352256     2.117684133378     1.007825032070
         H           -1.048437370072    -0.461731330943     1.947694249656     1.007825032070
         H            1.009426883401     2.456861203234    -1.093603233550     1.007825032070
         C            1.205171707811     1.418682068159    -0.827950895574    12.000000000000
         H            1.327774003395     0.821422411390    -1.737008204778     1.007825032070
         H            2.111309173268     1.366216671251    -0.224377102372     1.007825032070
         O            0.108954321354     0.938118808173    -0.056947628683    15.994914619560
         H           -0.783230166478     0.533596177120    -0.652826365660     1.007825032070
         C           -0.180937356454    -0.997974733242     1.563335646612    12.000000000000
         H           -0.352621651038    -2.070300409426     1.684973199517     1.007825032070
         H            0.920242285339    -1.066362999473    -0.336706894028     1.007825032070

  Basis Set: 6-311++G(D,P)
    Blend: 6-311++G(D,P)
  Basis Set: (6-311++G(D,P) AUX)
    Blend: AUG-CC-PVTZ-JKFIT

  -Total Gradient:
     Atom            X                  Y                   Z
    ------   -----------------  -----------------  -----------------
       1        0.000103975008    -0.000054366383     0.000123146751
       2       -0.000066597079     0.000125804458    -0.000052229931
       3       -0.000007906279     0.000007180751     0.000038088309
       4       -0.000009647361     0.000007110286     0.000004809149
       5        0.000011227165    -0.000040256441    -0.000019615189
       6       -0.000017579314    -0.000055385767    -0.000006404910
       7        0.000019150077    -0.000050555966    -0.000000151439
       8        0.000019075860    -0.000025298155     0.000000360548
       9        0.000201398523    -0.000028204971     0.000162832713
      10       -0.000244050276    -0.000202997952    -0.000127083582
      11        0.000025052505     0.000052866073    -0.000085968509
      12       -0.000010533542     0.000003390648     0.000029135306
      13        0.000007122662    -0.000011411793     0.000083869554

  Vibration                       1                   8                   9
  Freq [cm^-1]                1465.3136i           111.5206            188.6918
  Irrep                           A                   A                   A
  Reduced mass [u]              1.2205              2.8360              1.0961
  Force const [mDyne/A]        -1.5440              0.0208              0.0230

  Vibration                       10                  11                  12
  Freq [cm^-1]                 214.5065            267.4968            300.6184
  Irrep                           A                   A                   A
  Reduced mass [u]              1.1856              2.1748              2.9678
  Force const [mDyne/A]         0.0321              0.0917              0.1580

  Vibration                       13                  14                  15
  Freq [cm^-1]                 494.1775            592.3291            716.8737
  Irrep                           A                   A                   A
  Reduced mass [u]              2.9362              3.0061              5.1322
  Force const [mDyne/A]         0.4225              0.6214              1.5540

  Vibration                       16                  17                  18
  Freq [cm^-1]                 913.2389            989.0667           1064.1476
  Irrep                           A                   A                   A
  Reduced mass [u]              1.9006              1.3615              1.4919
  Force const [mDyne/A]         0.9339              0.7847              0.9954

  Vibration                       19                  20                  21
  Freq [cm^-1]                1116.2602           1166.0831           1198.3475
  Irrep                           A                   A                   A
  Reduced mass [u]              3.2482              1.5317              1.5366
  Force const [mDyne/A]         2.3846              1.2271              1.3001

  Vibration                       22                  23                  24
  Freq [cm^-1]                1248.0006           1286.2121           1338.8374
  Irrep                           A                   A                   A
  Reduced mass [u]              1.3005              1.2368              1.4663
  Force const [mDyne/A]         1.1934              1.2055              1.5486

  Vibration                       25                  26                  27
  Freq [cm^-1]                1395.5338           1464.2650           1477.3634
  Irrep                           A                   A                   A
  Reduced mass [u]              1.3234              1.2217              1.0931
  Force const [mDyne/A]         1.5185              1.5433              1.4057

  Vibration                       28                  29                  30
  Freq [cm^-1]                1480.9202           1502.9060           1510.8992
  Irrep                           A                   A                   A
  Reduced mass [u]              1.0896              1.0739              1.0459
  Force const [mDyne/A]         1.4080              1.4291              1.4067

  Vibration                       31                  32                  33
  Freq [cm^-1]                1528.5406           2094.0399           2988.5069
  Irrep                           A                   A                   A
  Reduced mass [u]              2.0889              1.0633              1.0864
  Force const [mDyne/A]         2.8755              2.7471              5.7168

  Vibration                       34                  35                  36
  Freq [cm^-1]                3057.7545           3072.8767           3141.0872
  Irrep                           A                   A                   A
  Reduced mass [u]              1.0357              1.0350              1.0998
  Force const [mDyne/A]         5.7055              5.7583              6.3933

  Vibration                       37                  38                  39
  Freq [cm^-1]                3151.0151           3168.3328           3173.1194
  Irrep                           A                   A                   A
  Reduced mass [u]              1.1014              1.1069              1.1044
  Force const [mDyne/A]         6.4432              6.5469              6.5517

  ==> Thermochemistry Components <==

  Entropy, S
    Electronic S            0.000 [cal/(mol K)]        0.000 [J/(mol K)]       0.00000000 [mEh/K] (multiplicity = 1)
    Translational S        38.902 [cal/(mol K)]      162.766 [J/(mol K)]       0.06199438 [mEh/K] (mol. weight = 76.0524 [u], P = 101325.00 [Pa])
    Rotational S           25.735 [cal/(mol K)]      107.676 [J/(mol K)]       0.04101166 [mEh/K] (symmetry no. = 1)
    Vibrational S          12.564 [cal/(mol K)]       52.569 [J/(mol K)]       0.02002232 [mEh/K]
  Total S                  77.201 [cal/(mol K)]      323.011 [J/(mol K)]       0.12302836 [mEh/K]
  Correction S              0.000 [cal/(mol K)]        0.000 [J/(mol K)]       0.00000000 [mEh/K]

  Constant volume heat capacity, Cv
    Electronic Cv           0.000 [cal/(mol K)]        0.000 [J/(mol K)]       0.00000000 [mEh/K]
    Translational Cv        2.981 [cal/(mol K)]       12.472 [J/(mol K)]       0.00475022 [mEh/K]
    Rotational Cv           2.981 [cal/(mol K)]       12.472 [J/(mol K)]       0.00475022 [mEh/K]
    Vibrational Cv         15.049 [cal/(mol K)]       62.966 [J/(mol K)]       0.02398247 [mEh/K]
  Total Cv                 21.011 [cal/(mol K)]       87.909 [J/(mol K)]       0.03348292 [mEh/K]
  Correction Cv             0.000 [cal/(mol K)]        0.000 [J/(mol K)]       0.00000000 [mEh/K]

  Constant pressure heat capacity, Cp
    Electronic Cp           0.000 [cal/(mol K)]        0.000 [J/(mol K)]       0.00000000 [mEh/K]
    Translational Cp        4.968 [cal/(mol K)]       20.786 [J/(mol K)]       0.00791704 [mEh/K]
    Rotational Cp           2.981 [cal/(mol K)]       12.472 [J/(mol K)]       0.00475022 [mEh/K]
    Vibrational Cp         15.049 [cal/(mol K)]       62.966 [J/(mol K)]       0.02398247 [mEh/K]
  Total Cp                 22.998 [cal/(mol K)]       96.224 [J/(mol K)]       0.03664973 [mEh/K]
  Correction Cp             0.000 [cal/(mol K)]        0.000 [J/(mol K)]       0.00000000 [mEh/K]

  ==> Thermochemistry Energy Analysis <==

  Raw electronic energy, E0
  Total E0, Electronic energy at well bottom at 0 [K]                 -269.46092269 [Eh]

  Zero-point energy, ZPE_vib = Sum_i nu_i / 2
    Electronic ZPE          0.000 [kcal/mol]        0.000 [kJ/mol]       0.00000000 [Eh]
    Translational ZPE       0.000 [kcal/mol]        0.000 [kJ/mol]       0.00000000 [Eh]
    Rotational ZPE          0.000 [kcal/mol]        0.000 [kJ/mol]       0.00000000 [Eh]
    Vibrational ZPE        67.781 [kcal/mol]      283.596 [kJ/mol]       0.10801604 [Eh]       23706.777 [cm^-1]
  Correction ZPE           67.781 [kcal/mol]      283.596 [kJ/mol]       0.10801604 [Eh]       23706.777 [cm^-1]
  Total ZPE, Electronic energy at 0 [K]                               -269.35290665 [Eh]

  Thermal Energy, E (includes ZPE)
    Electronic E            0.000 [kcal/mol]        0.000 [kJ/mol]       0.00000000 [Eh]
    Translational E         0.889 [kcal/mol]        3.718 [kJ/mol]       0.00141628 [Eh]
    Rotational E            0.889 [kcal/mol]        3.718 [kJ/mol]       0.00141628 [Eh]
    Vibrational E          69.953 [kcal/mol]      292.685 [kJ/mol]       0.11147782 [Eh]
  Correction E             71.731 [kcal/mol]      300.122 [kJ/mol]       0.11431038 [Eh]
  Total E, Electronic energy at  298.15 [K]                           -269.34661231 [Eh]

  Enthalpy, H_trans = E_trans + k_B * T
    Electronic H            0.000 [kcal/mol]        0.000 [kJ/mol]       0.00000000 [Eh]
    Translational H         1.481 [kcal/mol]        6.197 [kJ/mol]       0.00236046 [Eh]
    Rotational H            0.889 [kcal/mol]        3.718 [kJ/mol]       0.00141628 [Eh]
    Vibrational H          69.953 [kcal/mol]      292.685 [kJ/mol]       0.11147782 [Eh]
  Correction H             72.323 [kcal/mol]      302.601 [kJ/mol]       0.11525456 [Eh]
  Total H, Enthalpy at  298.15 [K]                                    -269.34566813 [Eh]

  Gibbs free energy, G = H - T * S
    Electronic G            0.000 [kcal/mol]        0.000 [kJ/mol]       0.00000000 [Eh]
    Translational G       -10.117 [kcal/mol]      -42.331 [kJ/mol]      -0.01612316 [Eh]
    Rotational G           -6.784 [kcal/mol]      -28.385 [kJ/mol]      -0.01081135 [Eh]
    Vibrational G          66.207 [kcal/mol]      277.012 [kJ/mol]       0.10550817 [Eh]
  Correction G             49.306 [kcal/mol]      206.295 [kJ/mol]       0.07857366 [Eh]
  Total G, Free enthalpy at  298.15 [K]                               -269.38234903 [Eh]

*** Psi4 exiting successfully. Buy a developer a beer!
