                               Psi4 1.2.1 release

  ==> Input File <==

--------------------------------------------------------------------------
molecule{
0 1
C -0.0364630000 -0.7236840000 0.0925330000

O -1.0957300000 -0.7652260000 -0.6716710000

H -0.9895898216 -3.1422972455 1.2251031174

H 0.7688047960 -3.0318824872 1.4324724706

H 1.0094270000 2.4568610000 -1.0936030000

C 1.2051720000 1.4186820000 -0.8279510000

H 1.3277740000 0.8214220000 -1.7370080000

H 2.1113090000 1.3662170000 -0.2243770000

O 0.1089540000 0.9381190000 -0.0569480000

H -0.7832300000 0.5335960000 -0.6528260000

C -0.2565798470 -1.1180241509 1.5472267227

H -0.3031484839 -2.8546799281 2.8314395648

H 0.9202420000 -1.0663630000 -0.3367070000

C -0.1912383517 -2.6246300707 1.7669940074

H 0.5296809979 -0.6447604272 2.1486254570

H -1.2121450886 -0.7301066180 1.9234129341
}

set{
   basis 6-311++G(d,p)
   freeze_core True
   opt_type ts
}

set_num_threads(32)
optimize('m06-2x')
--------------------------------------------------------------------------

    Molecular point group: c1
  Charge       = 0
  Multiplicity = 1
  Basis Set: 6-311++G(D,P)
    Blend: 6-311++G(D,P)
  Basis Set: (6-311++G(D,P) AUX)
    Blend: AUG-CC-PVTZ-JKFIT
  @DF-RKS Final Energy:  -308.76137685561133
    Total Energy =                       -308.7613768556113314
    Molecular point group: c1
  Basis Set: 6-311++G(D,P)
    Blend: 6-311++G(D,P)
  Basis Set: (6-311++G(D,P) AUX)
    Blend: AUG-CC-PVTZ-JKFIT
  Basis Set: 6-311++G(D,P)
    Blend: 6-311++G(D,P)
  Basis Set: (6-311++G(D,P) AUX)
    Blend: AUG-CC-PVTZ-JKFIT
  @DF-RKS Final Energy:  -308.76423510463263
    Total Energy =                       -308.7642351046326326
  Basis Set: 6-311++G(D,P)
    Blend: 6-311++G(D,P)
  Basis Set: (6-311++G(D,P) AUX)
    Blend: AUG-CC-PVTZ-JKFIT
  Basis Set: 6-311++G(D,P)
    Blend: 6-311++G(D,P)
  @DF-RKS Final Energy:  -308.76319169740458
    Total Energy =                       -308.7631916974045794
  @DF-RKS Final Energy:  -308.76407453290108
    Total Energy =                       -308.7640745329010770
  @DF-RKS Final Energy:  -308.76432653715887
    Total Energy =                       -308.7643265371588654
  @DF-RKS Final Energy:  -308.76461344751817
    Total Energy =                       -308.7646134475181725
  @DF-RKS Final Energy:  -308.76451614344529
    Total Energy =                       -308.7645161434452916
  @DF-RKS Final Energy:  -308.76462489175003
    Total Energy =                       -308.7646248917500316
  @DF-RKS Final Energy:  -308.76444749860832
    Total Energy =                       -308.7644474986083196
  @DF-RKS Final Energy:  -308.76469722785561
    Total Energy =                       -308.7646972278556063
  @DF-RKS Final Energy:  -308.76470268466198
    Total Energy =                       -308.7647026846619838
  @DF-RKS Final Energy:  -308.76468757354587
    Total Energy =                       -308.7646875735458707
  @DF-RKS Final Energy:  -308.76468574716279
    Total Energy =                       -308.7646857471628437
  Basis Set: (6-311++G(D,P) AUX)
    Blend: AUG-CC-PVTZ-JKFIT
  Basis Set: 6-311++G(D,P)
    Blend: 6-311++G(D,P)
  Basis Set: (6-311++G(D,P) AUX)
    Blend: AUG-CC-PVTZ-JKFIT
  @DF-RKS Final Energy:  -308.76468751562578
    Total Energy =                       -308.7646875156257806
  Basis Set: 6-311++G(D,P)
    Blend: 6-311++G(D,P)
  Basis Set: (6-311++G(D,P) AUX)
    Blend: AUG-CC-PVTZ-JKFIT
  Charge       = 0
  Multiplicity = 1
  Basis Set: 6-311++G(D,P)
    Blend: 6-311++G(D,P)
  Basis Set: (6-311++G(D,P) AUX)
    Blend: AUG-CC-PVTZ-JKFIT

    Orbital Energies [Eh]
    ---------------------

    Doubly Occupied:

       1A    -19.675236     2A    -19.571873     3A    -10.649815
       4A    -10.606659     5A    -10.538179     6A    -10.528296
       7A     -1.214269     8A     -1.098383     9A     -0.880974
      10A     -0.812308    11A     -0.749644    12A     -0.667855
      13A     -0.627840    14A     -0.567325    15A     -0.560684
      16A     -0.532885    17A     -0.502963    18A     -0.474884
      19A     -0.465819    20A     -0.446119    21A     -0.427675
      22A     -0.411021    23A     -0.407770    24A     -0.340926
      25A     -0.313452

  @DF-RKS Final Energy:  -308.76468720944376

   => Energetics <=

    Nuclear Repulsion Energy =            260.9768036055812672
    One-Electron Energy =                -936.4430887291252930
    Two-Electron Energy =                 387.2166170875351554
    DFT Exchange-Correlation Energy =     -20.5150191734348724
    Empirical Dispersion Energy =           0.0000000000000000
    VV10 Nonlocal Energy =                  0.0000000000000000
    Total Energy =                       -308.7646872094437640

  Dipole Moment: [D]
     X:     3.0507      Y:     1.7979      Z:     0.4847     Total:     3.5741

    Molecular point group: c1
  Basis Set: 6-311++G(D,P)
    Blend: 6-311++G(D,P)
  Basis Set: (6-311++G(D,P) AUX)
    Blend: AUG-CC-PVTZ-JKFIT

  -Total Gradient:
     Atom            X                  Y                   Z
    ------   -----------------  -----------------  -----------------
       1       -0.000022731282    -0.000212303304     0.000031993550
       2        0.000097367013    -0.000018263280     0.000034548901
       3        0.000019320143    -0.000013369728     0.000004715237
       4        0.000021734388     0.000006907062     0.000010799495
       5       -0.000031907643     0.000000956251    -0.000010403438
       6       -0.000014468090    -0.000009855849     0.000011903112
       7       -0.000009306135     0.000002740280    -0.000002746566
       8       -0.000016600492     0.000015869656    -0.000002577736
       9       -0.000057246737     0.000090067660    -0.000058942751
      10       -0.000032320645     0.000095383579    -0.000020832288
      11        0.000020132372     0.000034359642     0.000010180044
      12        0.000014454379     0.000007073014     0.000011654594
      13       -0.000000513191    -0.000002339627    -0.000001030878
      14        0.000009345846    -0.000004408261     0.000009179064
      15       -0.000020802314     0.000027278556     0.000007063803
      16       -0.000032683819    -0.000021614710    -0.000021859650

  **** Optimization is complete! (in 15 steps) ****
    Final optimized geometry and variables:
    Molecular point group: c1

    Geometry (in Angstrom), charge = 0, multiplicity = 1:

    C            0.055542535503    -0.303938266973    -0.190765730666
    O           -1.037385259856    -0.463524517665    -0.891725102032
    H           -0.939245150220    -2.519616213151     0.982364389928
    H            0.825503080982    -2.626757521264     1.044026143246
    H            0.699416495259     2.976165263834    -1.373222718994
    C            1.008961958530     1.956579903918    -1.146883414419
    H            1.133913856481     1.391548222579    -2.075689206332
    H            1.949200052733     1.979227644088    -0.596201432594
    O            0.010867805668     1.355630820841    -0.327096587898
    H           -0.865113473736     0.868654164682    -0.876854213181
    C            0.031547925705    -0.612939668607     1.283904195818
    H           -0.091566509057    -2.383589230479     2.533494190388
    H            1.016425396521    -0.548284178046    -0.678564980399
    C           -0.047419489333    -2.128679854358     1.473952098635
    H            0.925022092710    -0.203100143894     1.762689736844
    H           -0.847871572757    -0.126349296173     1.711379564523

*** Psi4 exiting successfully. Buy a developer a beer!
