                               Psi4 1.2.1 release

  ==> Input File <==

--------------------------------------------------------------------------
molecule{
0 1
    C            0.055542535503    -0.303938266973    -0.190765730666
    O           -1.037385259856    -0.463524517665    -0.891725102032
    H           -0.939245150220    -2.519616213151     0.982364389928
    H            0.825503080982    -2.626757521264     1.044026143246
    H            0.699416495259     2.976165263834    -1.373222718994
    C            1.008961958530     1.956579903918    -1.146883414419
    H            1.133913856481     1.391548222579    -2.075689206332
    H            1.949200052733     1.979227644088    -0.596201432594
    O            0.010867805668     1.355630820841    -0.327096587898
    H           -0.865113473736     0.868654164682    -0.876854213181
    C            0.031547925705    -0.612939668607     1.283904195818
    H           -0.091566509057    -2.383589230479     2.533494190388
    H            1.016425396521    -0.548284178046    -0.678564980399
    C           -0.047419489333    -2.128679854358     1.473952098635
    H            0.925022092710    -0.203100143894     1.762689736844
    H           -0.847871572757    -0.126349296173     1.711379564523
}

set{
   basis 6-311++G(d,p)
   freeze_core True
   normal_modes_write True
}

set_num_threads(16)
frequencies('m06-2x')
--------------------------------------------------------------------------

    Molecular point group: c1
  Charge       = 0
  Multiplicity = 1
  Basis Set: 6-311++G(D,P)
    Blend: 6-311++G(D,P)
  Basis Set: (6-311++G(D,P) AUX)
    Blend: AUG-CC-PVTZ-JKFIT
  @DF-RKS Final Energy:  -308.76468720886174
    Total Energy =                       -308.7646872088617442
    Molecular point group: c1
  Basis Set: 6-311++G(D,P)
    Blend: 6-311++G(D,P)
  Basis Set: (6-311++G(D,P) AUX)
    Blend: AUG-CC-PVTZ-JKFIT
  Basis Set: 6-311++G(D,P)
    Blend: 6-311++G(D,P)
  Basis Set: (6-311++G(D,P) AUX)
    Blend: AUG-CC-PVTZ-JKFIT
  @DF-RKS Final Energy:  -308.76468629164549
    Total Energy =                       -308.7646862916454324
  Basis Set: 6-311++G(D,P)
    Blend: 6-311++G(D,P)
  Basis Set: (6-311++G(D,P) AUX)
    Blend: AUG-CC-PVTZ-JKFIT
  Basis Set: 6-311++G(D,P)
    Blend: 6-311++G(D,P)
  @DF-RKS Final Energy:  -308.76468649606602
    Total Energy =                       -308.7646864960659627
  @DF-RKS Final Energy:  -308.76468661269786
    Total Energy =                       -308.7646866126978580
  @DF-RKS Final Energy:  -308.76468735421963
    Total Energy =                       -308.7646873542196317
  @DF-RKS Final Energy:  -308.76468645606656
    Total Energy =                       -308.7646864560665563
  @DF-RKS Final Energy:  -308.76468655468977
    Total Energy =                       -308.7646865546897743
  @DF-RKS Final Energy:  -308.76468675704371
    Total Energy =                       -308.7646867570437053
  @DF-RKS Final Energy:  -308.76468692804838
    Total Energy =                       -308.7646869280483770
  @DF-RKS Final Energy:  -308.76468714959321
    Total Energy =                       -308.7646871495932146
  @DF-RKS Final Energy:  -308.76468704739960
    Total Energy =                       -308.7646870473996046
  @DF-RKS Final Energy:  -308.76468726137978
    Total Energy =                       -308.7646872613797768
  @DF-RKS Final Energy:  -308.76468680941298
    Total Energy =                       -308.7646868094129786
  @DF-RKS Final Energy:  -308.76468386139402
    Total Energy =                       -308.7646838613940190
  @DF-RKS Final Energy:  -308.76468383667259
    Total Energy =                       -308.7646838366725888
  @DF-RKS Final Energy:  -308.76468596345097
    Total Energy =                       -308.7646859634509724
  @DF-RKS Final Energy:  -308.76468627152843
    Total Energy =                       -308.7646862715284328
  @DF-RKS Final Energy:  -308.76468585980797
    Total Energy =                       -308.7646858598079689
  @DF-RKS Final Energy:  -308.76468573439962
    Total Energy =                       -308.7646857343995634
  @DF-RKS Final Energy:  -308.76468419600491
    Total Energy =                       -308.7646841960049073
  @DF-RKS Final Energy:  -308.76468589414799
    Total Energy =                       -308.7646858941479877
  @DF-RKS Final Energy:  -308.76468661351328
    Total Energy =                       -308.7646866135132768
  @DF-RKS Final Energy:  -308.76468625632475
    Total Energy =                       -308.7646862563247510
  @DF-RKS Final Energy:  -308.76468622168181
    Total Energy =                       -308.7646862216818135
  @DF-RKS Final Energy:  -308.76468633938742
    Total Energy =                       -308.7646863393874241
  @DF-RKS Final Energy:  -308.76468283101428
    Total Energy =                       -308.7646828310142837
  @DF-RKS Final Energy:  -308.76468283415443
    Total Energy =                       -308.7646828341544278
  @DF-RKS Final Energy:  -308.76468477969161
    Total Energy =                       -308.7646847796916063
  @DF-RKS Final Energy:  -308.76468484486219
    Total Energy =                       -308.7646848448621881
  @DF-RKS Final Energy:  -308.76468629551749
    Total Energy =                       -308.7646862955175493
  @DF-RKS Final Energy:  -308.76468621491557
    Total Energy =                       -308.7646862149155709
  @DF-RKS Final Energy:  -308.76468600031410
    Total Energy =                       -308.7646860003140432
  @DF-RKS Final Energy:  -308.76468595512381
    Total Energy =                       -308.7646859551238094
  @DF-RKS Final Energy:  -308.76468449278082
    Total Energy =                       -308.7646844927808161
  @DF-RKS Final Energy:  -308.76468467609624
    Total Energy =                       -308.7646846760962376
  @DF-RKS Final Energy:  -308.76468582785395
    Total Energy =                       -308.7646858278539526
  @DF-RKS Final Energy:  -308.76468579742937
    Total Energy =                       -308.7646857974293653
  @DF-RKS Final Energy:  -308.76468407480814
    Total Energy =                       -308.7646840748081445
  Basis Set: (6-311++G(D,P) AUX)
    Blend: AUG-CC-PVTZ-JKFIT
  Basis Set: 6-311++G(D,P)
    Blend: 6-311++G(D,P)
  Basis Set: (6-311++G(D,P) AUX)
    Blend: AUG-CC-PVTZ-JKFIT
  @DF-RKS Final Energy:  -308.76468385919827
    Total Energy =                       -308.7646838591982714
  Basis Set: 6-311++G(D,P)
    Blend: 6-311++G(D,P)
  Basis Set: (6-311++G(D,P) AUX)
    Blend: AUG-CC-PVTZ-JKFIT
    Molecular point group: c1
  Charge       = 0
  Multiplicity = 1
  Basis Set: 6-311++G(D,P)
    Blend: 6-311++G(D,P)
  Basis Set: (6-311++G(D,P) AUX)
    Blend: AUG-CC-PVTZ-JKFIT

    Orbital Energies [Eh]
    ---------------------

    Doubly Occupied:

       1A    -19.675236     2A    -19.571873     3A    -10.649815
       4A    -10.606659     5A    -10.538179     6A    -10.528296
       7A     -1.214269     8A     -1.098383     9A     -0.880974
      10A     -0.812308    11A     -0.749644    12A     -0.667855
      13A     -0.627840    14A     -0.567325    15A     -0.560684
      16A     -0.532885    17A     -0.502963    18A     -0.474884
      19A     -0.465819    20A     -0.446119    21A     -0.427675
      22A     -0.411021    23A     -0.407770    24A     -0.340926
      25A     -0.313452

  @DF-RKS Final Energy:  -308.76468720983172

   => Energetics <=

    Nuclear Repulsion Energy =            260.9768036055543234
    One-Electron Energy =                -936.4430889214844456
    Two-Electron Energy =                 387.2166173093591510
    DFT Exchange-Correlation Energy =     -20.5150192032607741
    Empirical Dispersion Energy =           0.0000000000000000
    VV10 Nonlocal Energy =                  0.0000000000000000
    Total Energy =                       -308.7646872098317203

  Dipole Moment: [D]
     X:     3.0507      Y:     1.7979      Z:     0.4847     Total:     3.5741

    Molecular point group: c1

    Geometry (in Angstrom), charge = 0, multiplicity = 1:

       Center              X                  Y                   Z               Mass
    ------------   -----------------  -----------------  -----------------  -----------------
         C            0.055542535503    -0.303938266973    -0.190765730666    12.000000000000
         O           -1.037385259856    -0.463524517665    -0.891725102032    15.994914619560
         H           -0.939245150220    -2.519616213151     0.982364389928     1.007825032070
         H            0.825503080982    -2.626757521264     1.044026143246     1.007825032070
         H            0.699416495259     2.976165263834    -1.373222718994     1.007825032070
         C            1.008961958530     1.956579903918    -1.146883414419    12.000000000000
         H            1.133913856481     1.391548222579    -2.075689206332     1.007825032070
         H            1.949200052733     1.979227644088    -0.596201432594     1.007825032070
         O            0.010867805668     1.355630820841    -0.327096587898    15.994914619560
         H           -0.865113473736     0.868654164682    -0.876854213181     1.007825032070
         C            0.031547925705    -0.612939668607     1.283904195818    12.000000000000
         H           -0.091566509057    -2.383589230479     2.533494190388     1.007825032070
         H            1.016425396521    -0.548284178046    -0.678564980399     1.007825032070
         C           -0.047419489333    -2.128679854358     1.473952098635    12.000000000000
         H            0.925022092710    -0.203100143894     1.762689736844     1.007825032070
         H           -0.847871572757    -0.126349296173     1.711379564523     1.007825032070

  Basis Set: 6-311++G(D,P)
    Blend: 6-311++G(D,P)
  Basis Set: (6-311++G(D,P) AUX)
    Blend: AUG-CC-PVTZ-JKFIT

  -Total Gradient:
     Atom            X                  Y                   Z
    ------   -----------------  -----------------  -----------------
       1       -0.000022719099    -0.000212216904     0.000032021575
       2        0.000097291008    -0.000018373550     0.000034513389
       3        0.000019212981    -0.000013414809     0.000004654951
       4        0.000021839613     0.000006827290     0.000010758703
       5       -0.000031939767     0.000001104274    -0.000010444791
       6       -0.000014677776    -0.000010045335     0.000012069213
       7       -0.000009282649     0.000002671854    -0.000002880764
       8       -0.000016454185     0.000015881982    -0.000002510142
       9       -0.000057169443     0.000090158592    -0.000058881247
      10       -0.000032380541     0.000095377180    -0.000020910695
      11        0.000020068779     0.000034262972     0.000010055214
      12        0.000014449926     0.000007060407     0.000011741307
      13       -0.000000346376    -0.000002393835    -0.000001093495
      14        0.000009348634    -0.000004239389     0.000009208005
      15       -0.000020641919     0.000027339890     0.000007154802
      16       -0.000032825398    -0.000021519693    -0.000021811514

  Vibration                       1                   8                   9
  Freq [cm^-1]                1442.5160i           80.7650             110.8172
  Irrep                           A                   A                   A
  Reduced mass [u]              1.2219              2.6811              2.0378
  Force const [mDyne/A]        -1.4981              0.0103              0.0147

  Vibration                       10                  11                  12
  Freq [cm^-1]                 149.8160            205.4625            216.9949
  Irrep                           A                   A                   A
  Reduced mass [u]              1.1957              1.9975              1.4364
  Force const [mDyne/A]         0.0158              0.0497              0.0398

  Vibration                       13                  14                  15
  Freq [cm^-1]                 272.0647            349.1896            518.2823
  Irrep                           A                   A                   A
  Reduced mass [u]              2.7722              3.6801              2.4519
  Force const [mDyne/A]         0.1209              0.2644              0.3880

  Vibration                       16                  17                  18
  Freq [cm^-1]                 651.9984            726.1250            806.6390
  Irrep                           A                   A                   A
  Reduced mass [u]              3.4640              4.6429              1.3190
  Force const [mDyne/A]         0.8676              1.4423              0.5057

  Vibration                       19                  20                  21
  Freq [cm^-1]                 909.9302           1021.8130           1063.2595
  Irrep                           A                   A                   A
  Reduced mass [u]              1.6608              1.8815              1.5328
  Force const [mDyne/A]         0.8102              1.1575              1.0210

  Vibration                       22                  23                  24
  Freq [cm^-1]                1072.4783           1123.2239           1171.0252
  Irrep                           A                   A                   A
  Reduced mass [u]              1.9130              2.5199              1.4443
  Force const [mDyne/A]         1.2964              1.8732              1.1669

  Vibration                       25                  26                  27
  Freq [cm^-1]                1201.2678           1234.2998           1269.8281
  Irrep                           A                   A                   A
  Reduced mass [u]              1.6309              1.2930              1.2320
  Force const [mDyne/A]         1.3866              1.1606              1.1704

  Vibration                       28                  29                  30
  Freq [cm^-1]                1294.8899           1324.3438           1364.3706
  Irrep                           A                   A                   A
  Reduced mass [u]              1.2505              1.4092              1.5942
  Force const [mDyne/A]         1.2354              1.4562              1.7485

  Vibration                       31                  32                  33
  Freq [cm^-1]                1408.6159           1473.9126           1479.8098
  Irrep                           A                   A                   A
  Reduced mass [u]              1.2575              1.2064              1.1007
  Force const [mDyne/A]         1.4701              1.5441              1.4201

  Vibration                       34                  35                  36
  Freq [cm^-1]                1498.6202           1502.7982           1507.4775
  Irrep                           A                   A                   A
  Reduced mass [u]              1.1979              1.0382              1.1063
  Force const [mDyne/A]         1.5852              1.3815              1.4812

  Vibration                       37                  38                  39
  Freq [cm^-1]                1510.3236           1527.0000           2105.2940
  Irrep                           A                   A                   A
  Reduced mass [u]              1.0582              1.7494              1.0640
  Force const [mDyne/A]         1.4223              2.4033              2.7786

  Vibration                       40                  41                  42
  Freq [cm^-1]                2971.1675           3059.6916           3066.5216
  Irrep                           A                   A                   A
  Reduced mass [u]              1.0858              1.0352              1.0369
  Force const [mDyne/A]         5.6476              5.7097              5.7451

  Vibration                       43                  44                  45
  Freq [cm^-1]                3076.8974           3126.0430           3142.7795
  Irrep                           A                   A                   A
  Reduced mass [u]              1.0605              1.1022              1.1023
  Force const [mDyne/A]         5.9155              6.3459              6.4149

  Vibration                       46                  47                  48
  Freq [cm^-1]                3143.5301           3157.4927           3169.7689
  Irrep                           A                   A                   A
  Reduced mass [u]              1.1003              1.1038              1.1071
  Force const [mDyne/A]         6.4060              6.4840              6.5539

  ==> Thermochemistry Components <==

  Entropy, S
    Electronic S            0.000 [cal/(mol K)]        0.000 [J/(mol K)]       0.00000000 [mEh/K] (multiplicity = 1)
    Translational S        39.406 [cal/(mol K)]      164.876 [J/(mol K)]       0.06279785 [mEh/K] (mol. weight = 90.0681 [u], P = 101325.00 [Pa])
    Rotational S           26.986 [cal/(mol K)]      112.910 [J/(mol K)]       0.04300512 [mEh/K] (symmetry no. = 1)
    Vibrational S          18.830 [cal/(mol K)]       78.786 [J/(mol K)]       0.03000811 [mEh/K]
  Total S                  85.223 [cal/(mol K)]      356.572 [J/(mol K)]       0.13581107 [mEh/K]
  Correction S              0.000 [cal/(mol K)]        0.000 [J/(mol K)]       0.00000000 [mEh/K]

  Constant volume heat capacity, Cv
    Electronic Cv           0.000 [cal/(mol K)]        0.000 [J/(mol K)]       0.00000000 [mEh/K]
    Translational Cv        2.981 [cal/(mol K)]       12.472 [J/(mol K)]       0.00475022 [mEh/K]
    Rotational Cv           2.981 [cal/(mol K)]       12.472 [J/(mol K)]       0.00475022 [mEh/K]
    Vibrational Cv         19.846 [cal/(mol K)]       83.035 [J/(mol K)]       0.03162620 [mEh/K]
  Total Cv                 25.807 [cal/(mol K)]      107.978 [J/(mol K)]       0.04112664 [mEh/K]
  Correction Cv             0.000 [cal/(mol K)]        0.000 [J/(mol K)]       0.00000000 [mEh/K]

  Constant pressure heat capacity, Cp
    Electronic Cp           0.000 [cal/(mol K)]        0.000 [J/(mol K)]       0.00000000 [mEh/K]
    Translational Cp        4.968 [cal/(mol K)]       20.786 [J/(mol K)]       0.00791704 [mEh/K]
    Rotational Cp           2.981 [cal/(mol K)]       12.472 [J/(mol K)]       0.00475022 [mEh/K]
    Vibrational Cp         19.846 [cal/(mol K)]       83.035 [J/(mol K)]       0.03162620 [mEh/K]
  Total Cp                 27.795 [cal/(mol K)]      116.292 [J/(mol K)]       0.04429346 [mEh/K]
  Correction Cp             0.000 [cal/(mol K)]        0.000 [J/(mol K)]       0.00000000 [mEh/K]

  ==> Thermochemistry Energy Analysis <==

  Raw electronic energy, E0
  Total E0, Electronic energy at well bottom at 0 [K]                 -308.76468721 [Eh]

  Zero-point energy, ZPE_vib = Sum_i nu_i / 2
    Electronic ZPE          0.000 [kcal/mol]        0.000 [kJ/mol]       0.00000000 [Eh]
    Translational ZPE       0.000 [kcal/mol]        0.000 [kJ/mol]       0.00000000 [Eh]
    Rotational ZPE          0.000 [kcal/mol]        0.000 [kJ/mol]       0.00000000 [Eh]
    Vibrational ZPE        85.870 [kcal/mol]      359.278 [kJ/mol]       0.13684182 [Eh]       30033.304 [cm^-1]
  Correction ZPE           85.870 [kcal/mol]      359.278 [kJ/mol]       0.13684182 [Eh]       30033.304 [cm^-1]
  Total ZPE, Electronic energy at 0 [K]                               -308.62784539 [Eh]

  Thermal Energy, E (includes ZPE)
    Electronic E            0.000 [kcal/mol]        0.000 [kJ/mol]       0.00000000 [Eh]
    Translational E         0.889 [kcal/mol]        3.718 [kJ/mol]       0.00141628 [Eh]
    Rotational E            0.889 [kcal/mol]        3.718 [kJ/mol]       0.00141628 [Eh]
    Vibrational E          88.919 [kcal/mol]      372.035 [kJ/mol]       0.14170065 [Eh]
  Correction E             90.696 [kcal/mol]      379.472 [kJ/mol]       0.14453321 [Eh]
  Total E, Electronic energy at  298.15 [K]                           -308.62015400 [Eh]

  Enthalpy, H_trans = E_trans + k_B * T
    Electronic H            0.000 [kcal/mol]        0.000 [kJ/mol]       0.00000000 [Eh]
    Translational H         1.481 [kcal/mol]        6.197 [kJ/mol]       0.00236046 [Eh]
    Rotational H            0.889 [kcal/mol]        3.718 [kJ/mol]       0.00141628 [Eh]
    Vibrational H          88.919 [kcal/mol]      372.035 [kJ/mol]       0.14170065 [Eh]
  Correction H             91.288 [kcal/mol]      381.951 [kJ/mol]       0.14547740 [Eh]
  Total H, Enthalpy at  298.15 [K]                                    -308.61920981 [Eh]

  Gibbs free energy, G = H - T * S
    Electronic G            0.000 [kcal/mol]        0.000 [kJ/mol]       0.00000000 [Eh]
    Translational G       -10.268 [kcal/mol]      -42.960 [kJ/mol]      -0.01636271 [Eh]
    Rotational G           -7.157 [kcal/mol]      -29.946 [kJ/mol]      -0.01140570 [Eh]
    Vibrational G          83.304 [kcal/mol]      348.545 [kJ/mol]       0.13275374 [Eh]
  Correction G             65.879 [kcal/mol]      275.639 [kJ/mol]       0.10498533 [Eh]
  Total G, Free enthalpy at  298.15 [K]                               -308.65970188 [Eh]

*** Psi4 exiting successfully. Buy a developer a beer!
