                               Psi4 1.2.1 release

  ==> Input File <==

--------------------------------------------------------------------------
molecule{
0 1
    C            0.446994189693    -0.301416585888     0.868835520532
    O            0.481159765750    -0.152990009249    -0.811505940796
    C           -1.624935032683     0.459307243726    -0.425158186291
    H           -2.299719283682     1.302565486172    -0.277015439688
    N           -0.503919106926     0.757595772629    -1.059964782334
    O           -0.617665798857     0.222440005482     1.300746385918
    N            1.449617743233    -0.906307516934     1.351698897941
    C           -0.005531387103     2.130881666623    -1.119508271191
    H            0.730525530364     2.180695122776    -1.921323561544
    H           -0.839712899481     2.801079679522    -1.335368523612
    H            0.460397718036     2.382967878521    -0.161367851959
    C            2.528484366012    -1.345613501225     0.469689828932
    H            2.186156650123    -2.100032731256    -0.248087817230
    H            2.963674625835    -0.511922547079    -0.092785513880
    H            3.305937044249    -1.790178599965     1.093798686939
    C           -2.214545342872    -0.907969204230    -0.429676951853
    H           -2.780557539155    -1.059440647323     0.491591591761
    H           -2.903481863599    -0.987997809925    -1.280727690315
    H           -1.443255348441    -1.672701370835    -0.516194052189

}

set{
   basis 6-31+G(d)
   freeze_core True
   normal_modes_write True
}

frequencies('mp2')
--------------------------------------------------------------------------

    Molecular point group: c1
  Charge       = 0
  Multiplicity = 1
  Basis Set: 6-31+G(D)
    Blend: 6-31+G(D)
  Basis Set: (6-31+G(D) AUX)
    Blend: HEAVY-AUG-CC-PVDZ-JKFIT
  @DF-RHF Final Energy:  -453.64797916537378
    Total Energy =                       -453.6479791653737266
  Basis Set: (6-31+G(D) AUX)
    Blend: HEAVY-AUG-CC-PVDZ-RI
    Molecular point group: c1
  Basis Set: 6-31+G(D)
    Blend: 6-31+G(D)
  Basis Set: (6-31+G(D) AUX)
    Blend: HEAVY-AUG-CC-PVDZ-JKFIT
  Basis Set: (6-31+G(D) AUX)
    Blend: HEAVY-AUG-CC-PVDZ-JKFIT
	 Reference Energy          =    -453.6479791653737834 [Eh]
	 Singles Energy            =      -0.0000000000000000 [Eh]
	 Same-Spin Energy          =      -0.3634459247544731 [Eh]
	 Opposite-Spin Energy      =      -1.0067455454487215 [Eh]
	 Correlation Energy        =      -1.3701914702031945 [Eh]
	 Total Energy              =    -455.0181706355769506 [Eh]
	 SCS Total Energy          =    -454.9772224614970924 [Eh]
  @DF-RHF Final Energy:  -453.64796140966126
    Total Energy =                       -453.6479614096612067
  @DF-RHF Final Energy:  -453.64799482800754
    Total Energy =                       -453.6479948280075405
  @DF-RHF Final Energy:  -453.64798788679212
    Total Energy =                       -453.6479878867921798
  @DF-RHF Final Energy:  -453.64796940001850
    Total Energy =                       -453.6479694000184963
  @DF-RHF Final Energy:  -453.64796614232068
    Total Energy =                       -453.6479661423206835
  @DF-RHF Final Energy:  -453.64799180763112
    Total Energy =                       -453.6479918076311151
  @DF-RHF Final Energy:  -453.64800252097257
    Total Energy =                       -453.6480025209725682
  @DF-RHF Final Energy:  -453.64795517928536
    Total Energy =                       -453.6479551792853044
  @DF-RHF Final Energy:  -453.64796323260322
    Total Energy =                       -453.6479632326031606
  @DF-RHF Final Energy:  -453.64799459040029
    Total Energy =                       -453.6479945904002307
  @DF-RHF Final Energy:  -453.64792842638730
    Total Energy =                       -453.6479284263873524
  @DF-RHF Final Energy:  -453.64802969399329
    Total Energy =                       -453.6480296939932941
  @DF-RHF Final Energy:  -453.64796525668845
    Total Energy =                       -453.6479652566883942
  @DF-RHF Final Energy:  -453.64799121106904
    Total Energy =                       -453.6479912110689838
  @DF-RHF Final Energy:  -453.64795583176397
    Total Energy =                       -453.6479558317639658
  @DF-RHF Final Energy:  -453.64800057944069
    Total Energy =                       -453.6480005794406907
  @DF-RHF Final Energy:  -453.64798776905872
    Total Energy =                       -453.6479877690586591
  @DF-RHF Final Energy:  -453.64797007081569
    Total Energy =                       -453.6479700708157452
  @DF-RHF Final Energy:  -453.64794122783712
    Total Energy =                       -453.6479412278371228
  @DF-RHF Final Energy:  -453.64799522465933
    Total Energy =                       -453.6479952246593257
  @DF-RHF Final Energy:  -453.64800434831358
    Total Energy =                       -453.6480043483136342
  @DF-RHF Final Energy:  -453.64794728189707
    Total Energy =                       -453.6479472818970180
  @DF-RHF Final Energy:  -453.64796639272379
    Total Energy =                       -453.6479663927237880
  @DF-RHF Final Energy:  -453.64799061142338
    Total Energy =                       -453.6479906114233245
  @DF-RHF Final Energy:  -453.64798775083574
    Total Energy =                       -453.6479877508357959
  @DF-RHF Final Energy:  -453.64796996929607
    Total Energy =                       -453.6479699692961276
  @DF-RHF Final Energy:  -453.64798623111415
    Total Energy =                       -453.6479862311141460
  @DF-RHF Final Energy:  -453.64796606446851
    Total Energy =                       -453.6479660644685055
  @DF-RHF Final Energy:  -453.64800366215013
    Total Energy =                       -453.6480036621501313
  @DF-RHF Final Energy:  -453.64795057537117
    Total Energy =                       -453.6479505753711692
  @DF-RHF Final Energy:  -453.64797218585744
    Total Energy =                       -453.6479721858574976
  @DF-RHF Final Energy:  -453.64797951460378
    Total Energy =                       -453.6479795146037759
  @DF-RHF Final Energy:  -453.64794739695793
    Total Energy =                       -453.6479473969579885
  @DF-RHF Final Energy:  -453.64800490082303
    Total Energy =                       -453.6480049008230253
  @DF-RHF Final Energy:  -453.64794187832342
    Total Energy =                       -453.6479418783234223
  @DF-RHF Final Energy:  -453.64801000898063
    Total Energy =                       -453.6480100089805774
  @DF-RHF Final Energy:  -453.64792815698195
    Total Energy =                       -453.6479281569819477
  @DF-RHF Final Energy:  -453.64802321503305
    Total Energy =                       -453.6480232150330494
    Molecular point group: c1
  Charge       = 0
  Multiplicity = 1
  Basis Set: 6-31+G(D)
    Blend: 6-31+G(D)
  Basis Set: (6-31+G(D) AUX)
    Blend: HEAVY-AUG-CC-PVDZ-JKFIT

    Orbital Energies [Eh]
    ---------------------

    Doubly Occupied:

       1A    -20.614834     2A    -20.562525     3A    -15.683936
       4A    -15.529292     5A    -11.385515     6A    -11.379302
       7A    -11.290835     8A    -11.263048     9A    -11.232182
      10A     -1.470559    11A     -1.365438    12A     -1.219535
      13A     -1.170841    14A     -1.070809    15A     -0.968269
      16A     -0.920232    17A     -0.835516    18A     -0.756272
      19A     -0.720453    20A     -0.702954    21A     -0.675996
      22A     -0.633692    23A     -0.624696    24A     -0.610556
      25A     -0.589393    26A     -0.582024    27A     -0.579668
      28A     -0.564649    29A     -0.540596    30A     -0.534490
      31A     -0.500942    32A     -0.466297    33A     -0.441382
      34A     -0.370084    35A     -0.351469

  @DF-RHF Final Energy:  -453.64797916731266

   => Energetics <=

    Nuclear Repulsion Energy =            486.8711902473309578
    One-Electron Energy =               -1584.6217774530423412
    Two-Electron Energy =                 644.1026080383986709
    Total Energy =                       -453.6479791673126556

  Dipole Moment: [D]
     X:    -3.8159      Y:     2.5907      Z:    -4.3805     Total:     6.3610

  Basis Set: (6-31+G(D) AUX)
    Blend: HEAVY-AUG-CC-PVDZ-RI
    Molecular point group: c1

    Geometry (in Angstrom), charge = 0, multiplicity = 1:

       Center              X                  Y                   Z               Mass
    ------------   -----------------  -----------------  -----------------  -----------------
         C            0.446994189693    -0.301416585888     0.868835520532    12.000000000000
         O            0.481159765750    -0.152990009249    -0.811505940796    15.994914619560
         C           -1.624935032683     0.459307243726    -0.425158186291    12.000000000000
         H           -2.299719283682     1.302565486172    -0.277015439688     1.007825032070
         N           -0.503919106926     0.757595772629    -1.059964782334    14.003074004780
         O           -0.617665798857     0.222440005482     1.300746385918    15.994914619560
         N            1.449617743233    -0.906307516934     1.351698897941    14.003074004780
         C           -0.005531387103     2.130881666623    -1.119508271191    12.000000000000
         H            0.730525530364     2.180695122776    -1.921323561544     1.007825032070
         H           -0.839712899481     2.801079679522    -1.335368523612     1.007825032070
         H            0.460397718036     2.382967878521    -0.161367851959     1.007825032070
         C            2.528484366012    -1.345613501225     0.469689828932    12.000000000000
         H            2.186156650123    -2.100032731256    -0.248087817230     1.007825032070
         H            2.963674625835    -0.511922547079    -0.092785513880     1.007825032070
         H            3.305937044249    -1.790178599965     1.093798686939     1.007825032070
         C           -2.214545342872    -0.907969204230    -0.429676951853    12.000000000000
         H           -2.780557539155    -1.059440647323     0.491591591761     1.007825032070
         H           -2.903481863599    -0.987997809925    -1.280727690315     1.007825032070
         H           -1.443255348441    -1.672701370835    -0.516194052189     1.007825032070

  Basis Set: 6-31+G(D)
    Blend: 6-31+G(D)
  Basis Set: (6-31+G(D) AUX)
    Blend: HEAVY-AUG-CC-PVDZ-JKFIT
  Basis Set: (6-31+G(D) AUX)
    Blend: HEAVY-AUG-CC-PVDZ-JKFIT
	 Reference Energy          =    -453.6479791673126556 [Eh]
	 Singles Energy            =      -0.0000000000000000 [Eh]
	 Same-Spin Energy          =      -0.3634459247801199 [Eh]
	 Opposite-Spin Energy      =      -1.0067455455051755 [Eh]
	 Correlation Energy        =      -1.3701914702852953 [Eh]
	 Total Energy              =    -455.0181706375979616 [Eh]

	 ================> DF-SCS-MP2 Energies <==================
	-----------------------------------------------------------
	 SCS Same-Spin Scale       =       0.3333333333333333 [-]
	 SCS Opposite-Spin Scale   =       1.2000000000000000 [-]
	 SCS Same-Spin Energy      =      -0.1211486415933733 [Eh]
	 SCS Opposite-Spin Energy  =      -1.2080946546062106 [Eh]
	 SCS Correlation Energy    =      -1.3292432961995839 [Eh]
	 SCS Total Energy          =    -454.9772224635122484 [Eh]
	-----------------------------------------------------------

  -Total Gradient:
     Atom            X                  Y                   Z
    ------   -----------------  -----------------  -----------------
       1        0.000020973447    -0.000002950960    -0.000413754898
       2        0.000050695010    -0.000064830140     0.000258636918
       3        0.000002969909     0.000003185811    -0.000006479681
       4       -0.000012350910     0.000002489811    -0.000021967055
       5       -0.000075983402     0.000077218368    -0.000024224267
       6       -0.000052010247     0.000016444416     0.000161593756
       7        0.000079899177    -0.000050389348     0.000118166764
       8        0.000020558564     0.000028562449    -0.000031579196
       9       -0.000007921264    -0.000006910259    -0.000011528080
      10       -0.000009073861    -0.000001625932     0.000006360348
      11        0.000007188534    -0.000005402176    -0.000000102630
      12       -0.000013597979     0.000012859550    -0.000017011727
      13        0.000016985965     0.000010025425     0.000010326202
      14       -0.000002778921    -0.000021475981     0.000006955560
      15       -0.000012695594     0.000010834809    -0.000013658771
      16       -0.000010857521    -0.000001397332    -0.000023701830
      17       -0.000003214128     0.000002081899     0.000002939633
      18        0.000001232699    -0.000000984076    -0.000006589813
      19       -0.000000019479    -0.000007736326     0.000005618766

  Vibration                       1                   8                   9
  Freq [cm^-1]                533.9293i            71.0396             82.8557
  Irrep                           A                   A                   A
  Reduced mass [u]              7.5797              1.5642              1.6572
  Force const [mDyne/A]        -1.2731              0.0047              0.0067

  Vibration                       10                  11                  12
  Freq [cm^-1]                 165.5921            193.4001            205.3305
  Irrep                           A                   A                   A
  Reduced mass [u]              3.2004              2.0226              1.0662
  Force const [mDyne/A]         0.0517              0.0446              0.0265

  Vibration                       13                  14                  15
  Freq [cm^-1]                 208.9105            227.4419            297.1065
  Irrep                           A                   A                   A
  Reduced mass [u]              1.5715              2.5334              3.1125
  Force const [mDyne/A]         0.0404              0.0772              0.1619

  Vibration                       16                  17                  18
  Freq [cm^-1]                 301.2170            340.8255            451.9107
  Irrep                           A                   A                   A
  Reduced mass [u]              3.9972              4.0202              3.6237
  Force const [mDyne/A]         0.2137              0.2751              0.4360

  Vibration                       19                  20                  21
  Freq [cm^-1]                 555.7764            579.6396            637.1020
  Irrep                           A                   A                   A
  Reduced mass [u]              5.3940              4.8164              6.0687
  Force const [mDyne/A]         0.9817              0.9534              1.4513

  Vibration                       22                  23                  24
  Freq [cm^-1]                 649.4111            668.8746            876.5535
  Irrep                           A                   A                   A
  Reduced mass [u]              9.4793              8.8697              2.3429
  Force const [mDyne/A]         2.3554              2.3380              1.0606

  Vibration                       25                  26                  27
  Freq [cm^-1]                 944.3362            975.3223           1024.0729
  Irrep                           A                   A                   A
  Reduced mass [u]              1.1995              4.0796              2.5847
  Force const [mDyne/A]         0.6302              2.2865              1.5971

  Vibration                       28                  29                  30
  Freq [cm^-1]                1102.7984           1141.1668           1142.4183
  Irrep                           A                   A                   A
  Reduced mass [u]              1.5774              1.2984              1.7368
  Force const [mDyne/A]         1.1303              0.9963              1.3355

  Vibration                       31                  32                  33
  Freq [cm^-1]                1158.6804           1172.1668           1180.6502
  Irrep                           A                   A                   A
  Reduced mass [u]              1.4667              1.9011              1.7337
  Force const [mDyne/A]         1.1602              1.5390              1.4239

  Vibration                       34                  35                  36
  Freq [cm^-1]                1237.8240           1324.7539           1404.3374
  Irrep                           A                   A                   A
  Reduced mass [u]              2.4123              5.1373              1.4596
  Force const [mDyne/A]         2.1777              5.3120              1.6960

  Vibration                       37                  38                  39
  Freq [cm^-1]                1458.4494           1477.2966           1491.9498
  Irrep                           A                   A                   A
  Reduced mass [u]              1.3461              1.2070              1.1692
  Force const [mDyne/A]         1.6870              1.5521              1.5333

  Vibration                       40                  41                  42
  Freq [cm^-1]                1512.7449           1520.0515           1523.4581
  Irrep                           A                   A                   A
  Reduced mass [u]              1.0804              1.0485              1.0460
  Force const [mDyne/A]         1.4567              1.4274              1.4304

  Vibration                       43                  44                  45
  Freq [cm^-1]                1538.8512           1542.1022           1549.4133
  Irrep                           A                   A                   A
  Reduced mass [u]              1.0468              1.0543              1.0485
  Force const [mDyne/A]         1.4605              1.4772              1.4831

  Vibration                       46                  47                  48
  Freq [cm^-1]                1671.4153           1873.2915           3078.5393
  Irrep                           A                   A                   A
  Reduced mass [u]              4.4700             11.2629              1.0340
  Force const [mDyne/A]         7.3574             23.2869              5.7740

  Vibration                       49                  50                  51
  Freq [cm^-1]                3094.4650           3107.1604           3153.6496
  Irrep                           A                   A                   A
  Reduced mass [u]              1.0441              1.0336              1.1044
  Force const [mDyne/A]         5.8905              5.8791              6.4713

  Vibration                       52                  53                  54
  Freq [cm^-1]                3191.0925           3192.7074           3209.7052
  Irrep                           A                   A                   A
  Reduced mass [u]              1.0915              1.1020              1.1027
  Force const [mDyne/A]         6.5486              6.6182              6.6934

  Vibration                       55                  56                  57
  Freq [cm^-1]                3218.0344           3241.8621           3243.5290
  Irrep                           A                   A                   A
  Reduced mass [u]              1.0942              1.1054              1.1037
  Force const [mDyne/A]         6.6765              6.8445              6.8410

  ==> Thermochemistry Components <==

  Entropy, S
    Electronic S            0.000 [cal/(mol K)]        0.000 [J/(mol K)]       0.00000000 [mEh/K] (multiplicity = 1)
    Translational S        40.502 [cal/(mol K)]      169.460 [J/(mol K)]       0.06454374 [mEh/K] (mol. weight = 130.0742 [u], P = 101325.00 [Pa])
    Rotational S           28.885 [cal/(mol K)]      120.857 [J/(mol K)]       0.04603185 [mEh/K] (symmetry no. = 1)
    Vibrational S          26.583 [cal/(mol K)]      111.223 [J/(mol K)]       0.04236246 [mEh/K]
  Total S                  95.970 [cal/(mol K)]      401.539 [J/(mol K)]       0.15293806 [mEh/K]
  Correction S              0.000 [cal/(mol K)]        0.000 [J/(mol K)]       0.00000000 [mEh/K]

  Constant volume heat capacity, Cv
    Electronic Cv           0.000 [cal/(mol K)]        0.000 [J/(mol K)]       0.00000000 [mEh/K]
    Translational Cv        2.981 [cal/(mol K)]       12.472 [J/(mol K)]       0.00475022 [mEh/K]
    Rotational Cv           2.981 [cal/(mol K)]       12.472 [J/(mol K)]       0.00475022 [mEh/K]
    Vibrational Cv         28.706 [cal/(mol K)]      120.104 [J/(mol K)]       0.04574534 [mEh/K]
  Total Cv                 34.667 [cal/(mol K)]      145.048 [J/(mol K)]       0.05524579 [mEh/K]
  Correction Cv             0.000 [cal/(mol K)]        0.000 [J/(mol K)]       0.00000000 [mEh/K]

  Constant pressure heat capacity, Cp
    Electronic Cp           0.000 [cal/(mol K)]        0.000 [J/(mol K)]       0.00000000 [mEh/K]
    Translational Cp        4.968 [cal/(mol K)]       20.786 [J/(mol K)]       0.00791704 [mEh/K]
    Rotational Cp           2.981 [cal/(mol K)]       12.472 [J/(mol K)]       0.00475022 [mEh/K]
    Vibrational Cp         28.706 [cal/(mol K)]      120.104 [J/(mol K)]       0.04574534 [mEh/K]
  Total Cp                 36.654 [cal/(mol K)]      153.362 [J/(mol K)]       0.05841260 [mEh/K]
  Correction Cp             0.000 [cal/(mol K)]        0.000 [J/(mol K)]       0.00000000 [mEh/K]

  ==> Thermochemistry Energy Analysis <==

  Raw electronic energy, E0
  Total E0, Electronic energy at well bottom at 0 [K]                 -455.01817064 [Eh]

  Zero-point energy, ZPE_vib = Sum_i nu_i / 2
    Electronic ZPE          0.000 [kcal/mol]        0.000 [kJ/mol]       0.00000000 [Eh]
    Translational ZPE       0.000 [kcal/mol]        0.000 [kJ/mol]       0.00000000 [Eh]
    Rotational ZPE          0.000 [kcal/mol]        0.000 [kJ/mol]       0.00000000 [Eh]
    Vibrational ZPE        98.942 [kcal/mol]      413.975 [kJ/mol]       0.15767487 [Eh]       34605.630 [cm^-1]
  Correction ZPE           98.942 [kcal/mol]      413.975 [kJ/mol]       0.15767487 [Eh]       34605.630 [cm^-1]
  Total ZPE, Electronic energy at 0 [K]                               -454.86049576 [Eh]

  Thermal Energy, E (includes ZPE)
    Electronic E            0.000 [kcal/mol]        0.000 [kJ/mol]       0.00000000 [Eh]
    Translational E         0.889 [kcal/mol]        3.718 [kJ/mol]       0.00141628 [Eh]
    Rotational E            0.889 [kcal/mol]        3.718 [kJ/mol]       0.00141628 [Eh]
    Vibrational E         103.323 [kcal/mol]      432.302 [kJ/mol]       0.16465513 [Eh]
  Correction E            105.100 [kcal/mol]      439.739 [kJ/mol]       0.16748769 [Eh]
  Total E, Electronic energy at  298.15 [K]                           -454.85068295 [Eh]

  Enthalpy, H_trans = E_trans + k_B * T
    Electronic H            0.000 [kcal/mol]        0.000 [kJ/mol]       0.00000000 [Eh]
    Translational H         1.481 [kcal/mol]        6.197 [kJ/mol]       0.00236046 [Eh]
    Rotational H            0.889 [kcal/mol]        3.718 [kJ/mol]       0.00141628 [Eh]
    Vibrational H         103.323 [kcal/mol]      432.302 [kJ/mol]       0.16465513 [Eh]
  Correction H            105.693 [kcal/mol]      442.218 [kJ/mol]       0.16843187 [Eh]
  Total H, Enthalpy at  298.15 [K]                                    -454.84973877 [Eh]

  Gibbs free energy, G = H - T * S
    Electronic G            0.000 [kcal/mol]        0.000 [kJ/mol]       0.00000000 [Eh]
    Translational G       -10.594 [kcal/mol]      -44.327 [kJ/mol]      -0.01688325 [Eh]
    Rotational G           -7.723 [kcal/mol]      -32.315 [kJ/mol]      -0.01230812 [Eh]
    Vibrational G          95.397 [kcal/mol]      399.141 [kJ/mol]       0.15202476 [Eh]
  Correction G             77.079 [kcal/mol]      322.499 [kJ/mol]       0.12283339 [Eh]
  Total G, Free enthalpy at  298.15 [K]                               -454.89533725 [Eh]

*** Psi4 exiting successfully. Buy a developer a beer!
