                               Psi4 1.2.1 release

  ==> Input File <==

--------------------------------------------------------------------------
molecule{
0 1
 C   -0.039459960281   -0.372254806413   -1.203210807442
 O   -1.026225741635   -0.485671993583   -1.856051998616
CL    1.397224464973    0.364067905921    1.020767488590
CL   -1.502096113316    0.298728774337    1.026969231006
 H    1.150907526400    3.377154113532   -2.418402369498
 C    1.177124322235    2.341223972904   -2.072199455409
 H    1.204834583715    1.674028839643   -2.941096082674
 H    2.080885937992    2.193042972354   -1.481610952650
 O    0.083702927169    2.047737284391   -1.219056940645
 H   -0.740347886846    2.164945735722   -1.698482072781
 C   -0.047495688541   -0.412550356880    0.345510455901
CL    0.026943587051   -2.171958897201    0.656842131327
 H    0.985686061433   -0.368371645767   -1.612088096213
}

set{
   basis 6-311++G(d,p)
   freeze_core True
}

set_num_threads(16)
optimize('m06-2x')
--------------------------------------------------------------------------

    Molecular point group: c1
  Charge       = 0
  Multiplicity = 1
  Basis Set: 6-311++G(D,P)
    Blend: 6-311++G(D,P)
  Basis Set: (6-311++G(D,P) AUX)
    Blend: AUG-CC-PVTZ-JKFIT
  @DF-RKS Final Energy: -1648.29184818788463
    Total Energy =                      -1648.2918481878846251
    Molecular point group: c1
  Basis Set: 6-311++G(D,P)
    Blend: 6-311++G(D,P)
  Basis Set: (6-311++G(D,P) AUX)
    Blend: AUG-CC-PVTZ-JKFIT
  Basis Set: 6-311++G(D,P)
    Blend: 6-311++G(D,P)
  Basis Set: (6-311++G(D,P) AUX)
    Blend: AUG-CC-PVTZ-JKFIT
  @DF-RKS Final Energy: -1648.29293978683359
    Total Energy =                      -1648.2929397868335855
  Basis Set: 6-311++G(D,P)
    Blend: 6-311++G(D,P)
  Basis Set: (6-311++G(D,P) AUX)
    Blend: AUG-CC-PVTZ-JKFIT
  Basis Set: 6-311++G(D,P)
    Blend: 6-311++G(D,P)
  @DF-RKS Final Energy: -1648.29321280033810
    Total Energy =                      -1648.2932128003380967
  @DF-RKS Final Energy: -1648.29334829849677
    Total Energy =                      -1648.2933482984967668
  @DF-RKS Final Energy: -1648.29338359214103
    Total Energy =                      -1648.2933835921410264
  @DF-RKS Final Energy: -1648.29340087970536
    Total Energy =                      -1648.2934008797053593
  @DF-RKS Final Energy: -1648.29342216996520
    Total Energy =                      -1648.2934221699651971
  @DF-RKS Final Energy: -1648.29343222553985
    Total Energy =                      -1648.2934322255398456
  @DF-RKS Final Energy: -1648.29343510514036
    Total Energy =                      -1648.2934351051403610
  @DF-RKS Final Energy: -1648.29343904262578
    Total Energy =                      -1648.2934390426257778
  @DF-RKS Final Energy: -1648.29344810027874
    Total Energy =                      -1648.2934481002787379
  @DF-RKS Final Energy: -1648.29344600245668
    Total Energy =                      -1648.2934460024566761
  @DF-RKS Final Energy: -1648.29344244619847
    Total Energy =                      -1648.2934424461984690
  @DF-RKS Final Energy: -1648.29345286412399
    Total Energy =                      -1648.2934528641239922
  @DF-RKS Final Energy: -1648.29345727667237
    Total Energy =                      -1648.2934572766723704
  @DF-RKS Final Energy: -1648.29346007738945
    Total Energy =                      -1648.2934600773894545
  Basis Set: (6-311++G(D,P) AUX)
    Blend: AUG-CC-PVTZ-JKFIT
  Basis Set: 6-311++G(D,P)
    Blend: 6-311++G(D,P)
  Basis Set: (6-311++G(D,P) AUX)
    Blend: AUG-CC-PVTZ-JKFIT
  @DF-RKS Final Energy: -1648.29346163276568
    Total Energy =                      -1648.2934616327656840
  Basis Set: 6-311++G(D,P)
    Blend: 6-311++G(D,P)
  Basis Set: (6-311++G(D,P) AUX)
    Blend: AUG-CC-PVTZ-JKFIT
  Charge       = 0
  Multiplicity = 1
  Basis Set: 6-311++G(D,P)
    Blend: 6-311++G(D,P)
  Basis Set: (6-311++G(D,P) AUX)
    Blend: AUG-CC-PVTZ-JKFIT

    Orbital Energies [Eh]
    ---------------------

    Doubly Occupied:

       1A   -102.703753     2A   -102.700468     3A   -102.699636
       4A    -19.662621     5A    -19.641207     6A    -10.737512
       7A    -10.675153     8A    -10.593335     9A     -9.846219
      10A     -9.843210    11A     -9.842322    12A     -7.571556
      13A     -7.568609    14A     -7.567812    15A     -7.564202
      16A     -7.563992    17A     -7.561213    18A     -7.560973
      19A     -7.560216    20A     -7.560120    21A     -1.223613
      22A     -1.163399    23A     -1.060722    24A     -0.946885
      25A     -0.945812    26A     -0.799797    27A     -0.793792
      28A     -0.677551    29A     -0.605051    30A     -0.603991
      31A     -0.574776    32A     -0.567998    33A     -0.536696
      34A     -0.531072    35A     -0.517197    36A     -0.491395
      37A     -0.434088    38A     -0.427374    39A     -0.422088
      40A     -0.419550    41A     -0.393459    42A     -0.390196
      43A     -0.376548    44A     -0.372236    45A     -0.360352

  @DF-RKS Final Energy: -1648.29346207537765

   => Energetics <=

    Nuclear Repulsion Energy =            653.9390182594258931
    One-Electron Energy =               -3572.7647253370873841
    Two-Electron Energy =                1327.6022849153139305
    DFT Exchange-Correlation Energy =     -57.0700399130299161
    Empirical Dispersion Energy =           0.0000000000000000
    VV10 Nonlocal Energy =                  0.0000000000000000
    Total Energy =                      -1648.2934620753776471

  Dipole Moment: [D]
     X:     1.5472      Y:     1.3890      Z:    -1.5945     Total:     2.6203

    Molecular point group: c1
  Basis Set: 6-311++G(D,P)
    Blend: 6-311++G(D,P)
  Basis Set: (6-311++G(D,P) AUX)
    Blend: AUG-CC-PVTZ-JKFIT

  -Total Gradient:
     Atom            X                  Y                   Z
    ------   -----------------  -----------------  -----------------
       1        0.000059542441    -0.000045381160     0.000110401498
       2       -0.000052872682     0.000016916620    -0.000078141717
       3       -0.000047776688    -0.000041640809     0.000004813025
       4       -0.000025494110    -0.000058719965    -0.000026699247
       5       -0.000022469325     0.000011297967     0.000020667706
       6       -0.000019960033    -0.000010815968     0.000042682152
       7       -0.000007916471    -0.000009148358    -0.000017471183
       8        0.000008216173    -0.000000307468     0.000045166962
       9       -0.000052220795    -0.000031198897    -0.000008802414
      10       -0.000038901849     0.000029691955     0.000002488145
      11       -0.000030441685     0.000023467712    -0.000047145473
      12       -0.000025243257    -0.000092549905    -0.000011244225
      13        0.000003236892    -0.000002948791    -0.000014725228

  **** Optimization is complete! (in 18 steps) ****
    Final optimized geometry and variables:
    Molecular point group: c1

    Geometry (in Angstrom), charge = 0, multiplicity = 1:

    C            0.041683904765    -0.557438603123    -1.172771002161
    O           -0.899383141286    -0.578491017000    -1.896445478322
    CL           1.403583541863     0.259524759706     1.030076850649
    CL          -1.498158836207     0.483377554724     0.836455290631
    H            1.269230218259     3.414931724526    -2.530083200621
    C            1.293230959331     2.356744791069    -2.256360679522
    H            1.145519940032     1.748442767983    -3.155085992334
    H            2.271945342711     2.131022090690    -1.833359586707
    O            0.337009624203     2.053221464392    -1.254617879967
    H           -0.545098272278     2.240193686893    -1.588262566316
    C           -0.079713081199    -0.445150186982     0.368947837181
    CL          -0.229592551945    -2.136875022766     0.930672128642
    H            1.085969549954    -0.696184403376    -1.502022868273

*** Psi4 exiting successfully. Buy a developer a beer!
