                               Psi4 1.2.1 release

  ==> Input File <==

--------------------------------------------------------------------------
molecule{
0 1
    C            0.006693528323    -0.279637224262    -0.800657894312
    O           -1.082449924363    -0.421790259210    -1.488009949304
    F            1.062802919574    -0.023956486458     1.295002973653
    F           -1.097540296949     0.080594509799     1.276019061556
    H            0.977178856231     2.910158820172    -1.818849957232
    C            1.210429673681     1.867745006711    -1.614497179894
    H            1.400921277045     1.327364042081    -2.544543421282
    H            2.068481200267     1.802670198536    -0.948289164455
    O            0.082405440961     1.298677551225    -0.934784006658
    H           -0.815824867107     0.946670755852    -1.521709556490
    C           -0.049907967661    -0.505361914600     0.713694707408
    F           -0.104426112788    -1.814354521104     0.969130055961
    H            0.966199620589    -0.661243005328    -1.191145669509
}

set{
   basis 6-311++G(d,p)
   freeze_core True
   normal_modes_write True
}

set_num_threads(16)
frequencies('m06-2x')
--------------------------------------------------------------------------

    Molecular point group: c1
  Charge       = 0
  Multiplicity = 1
  Basis Set: 6-311++G(D,P)
    Blend: 6-311++G(D,P)
  Basis Set: (6-311++G(D,P) AUX)
    Blend: AUG-CC-PVTZ-JKFIT
  @DF-RKS Final Energy:  -567.20006846577132
    Total Energy =                       -567.2000684657713236
    Molecular point group: c1
  Basis Set: 6-311++G(D,P)
    Blend: 6-311++G(D,P)
  Basis Set: (6-311++G(D,P) AUX)
    Blend: AUG-CC-PVTZ-JKFIT
  Basis Set: 6-311++G(D,P)
    Blend: 6-311++G(D,P)
  Basis Set: (6-311++G(D,P) AUX)
    Blend: AUG-CC-PVTZ-JKFIT
  @DF-RKS Final Energy:  -567.20006759984699
    Total Energy =                       -567.2000675998469887
  Basis Set: 6-311++G(D,P)
    Blend: 6-311++G(D,P)
  Basis Set: (6-311++G(D,P) AUX)
    Blend: AUG-CC-PVTZ-JKFIT
  Basis Set: 6-311++G(D,P)
    Blend: 6-311++G(D,P)
  @DF-RKS Final Energy:  -567.20006766424592
    Total Energy =                       -567.2000676642459212
  @DF-RKS Final Energy:  -567.20006810163034
    Total Energy =                       -567.2000681016303361
  @DF-RKS Final Energy:  -567.20006823674089
    Total Energy =                       -567.2000682367408899
  @DF-RKS Final Energy:  -567.20006780855545
    Total Energy =                       -567.2000678085554455
  @DF-RKS Final Energy:  -567.20006780652011
    Total Energy =                       -567.2000678065201100
  @DF-RKS Final Energy:  -567.20006793230277
    Total Energy =                       -567.2000679323027725
  @DF-RKS Final Energy:  -567.20006828953672
    Total Energy =                       -567.2000682895367163
  @DF-RKS Final Energy:  -567.20006857062413
    Total Energy =                       -567.2000685706241256
  @DF-RKS Final Energy:  -567.20006815878344
    Total Energy =                       -567.2000681587835516
  @DF-RKS Final Energy:  -567.20006845486796
    Total Energy =                       -567.2000684548679601
  @DF-RKS Final Energy:  -567.20006820624178
    Total Energy =                       -567.2000682062417809
  @DF-RKS Final Energy:  -567.20006828037094
    Total Energy =                       -567.2000682803709424
  @DF-RKS Final Energy:  -567.20006808374069
    Total Energy =                       -567.2000680837406890
  @DF-RKS Final Energy:  -567.20006810806422
    Total Energy =                       -567.2000681080642153
  @DF-RKS Final Energy:  -567.20006855956012
    Total Energy =                       -567.2000685595601226
  @DF-RKS Final Energy:  -567.20006802280272
    Total Energy =                       -567.2000680228027250
  @DF-RKS Final Energy:  -567.20006865141772
    Total Energy =                       -567.2000686514177232
  @DF-RKS Final Energy:  -567.20006786544639
    Total Energy =                       -567.2000678654463854
  @DF-RKS Final Energy:  -567.20006693506809
    Total Energy =                       -567.2000669350680937
  @DF-RKS Final Energy:  -567.20006758578666
    Total Energy =                       -567.2000675857866554
  @DF-RKS Final Energy:  -567.20006764333505
    Total Energy =                       -567.2000676433350463
  @DF-RKS Final Energy:  -567.20006832260731
    Total Energy =                       -567.2000683226073079
  @DF-RKS Final Energy:  -567.20006801668137
    Total Energy =                       -567.2000680166813709
  @DF-RKS Final Energy:  -567.20006806391223
    Total Energy =                       -567.2000680639122265
  @DF-RKS Final Energy:  -567.20006795478935
    Total Energy =                       -567.2000679547893469
  @DF-RKS Final Energy:  -567.20006668704343
    Total Energy =                       -567.2000666870434316
  @DF-RKS Final Energy:  -567.20006714064073
    Total Energy =                       -567.2000671406407264
  @DF-RKS Final Energy:  -567.20006786629813
    Total Energy =                       -567.2000678662981272
  @DF-RKS Final Energy:  -567.20006827847226
    Total Energy =                       -567.2000682784722585
  @DF-RKS Final Energy:  -567.20006697870451
    Total Energy =                       -567.2000669787045126
  @DF-RKS Final Energy:  -567.20006734835397
    Total Energy =                       -567.2000673483539686
  @DF-RKS Final Energy:  -567.20006695619884
    Total Energy =                       -567.2000669561988389
  @DF-RKS Final Energy:  -567.20006652278107
    Total Energy =                       -567.2000665227810714
  @DF-RKS Final Energy:  -567.20006781485768
    Total Energy =                       -567.2000678148576753
  @DF-RKS Final Energy:  -567.20006771236399
    Total Energy =                       -567.2000677123639889
  @DF-RKS Final Energy:  -567.20006679227993
    Total Energy =                       -567.2000667922799266
  Basis Set: (6-311++G(D,P) AUX)
    Blend: AUG-CC-PVTZ-JKFIT
  Basis Set: 6-311++G(D,P)
    Blend: 6-311++G(D,P)
  Basis Set: (6-311++G(D,P) AUX)
    Blend: AUG-CC-PVTZ-JKFIT
  @DF-RKS Final Energy:  -567.20006723156575
    Total Energy =                       -567.2000672315657539
  Basis Set: 6-311++G(D,P)
    Blend: 6-311++G(D,P)
  Basis Set: (6-311++G(D,P) AUX)
    Blend: AUG-CC-PVTZ-JKFIT
    Molecular point group: c1
  Charge       = 0
  Multiplicity = 1
  Basis Set: 6-311++G(D,P)
    Blend: 6-311++G(D,P)
  Basis Set: (6-311++G(D,P) AUX)
    Blend: AUG-CC-PVTZ-JKFIT

    Orbital Energies [Eh]
    ---------------------

    Doubly Occupied:

       1A    -25.286141     2A    -25.284329     3A    -25.283505
       4A    -19.723061     5A    -19.598724     6A    -10.803106
       7A    -10.688449     8A    -10.634622     9A     -1.479588
      10A     -1.385862    11A     -1.384753    12A     -1.262959
      13A     -1.130228    14A     -0.876324    15A     -0.843312
      16A     -0.769019    17A     -0.705857    18A     -0.703677
      19A     -0.673038    20A     -0.657099    21A     -0.600036
      22A     -0.583276    23A     -0.581034    24A     -0.570627
      25A     -0.546204    26A     -0.538626    27A     -0.520628
      28A     -0.518951    29A     -0.502855    30A     -0.477294
      31A     -0.467282    32A     -0.371186    33A     -0.345632

  @DF-RKS Final Energy:  -567.20006846497608

   => Energetics <=

    Nuclear Repulsion Energy =            445.2572578543196187
    One-Electron Energy =               -1666.8479307716290805
    Two-Electron Energy =                 686.4221436909538170
    DFT Exchange-Correlation Energy =     -32.0315392386205673
    Empirical Dispersion Energy =           0.0000000000000000
    VV10 Nonlocal Energy =                  0.0000000000000000
    Total Energy =                       -567.2000684649760842

  Dipole Moment: [D]
     X:     3.5746      Y:     3.1889      Z:    -2.0774     Total:     5.2213

    Molecular point group: c1

    Geometry (in Angstrom), charge = 0, multiplicity = 1:

       Center              X                  Y                   Z               Mass
    ------------   -----------------  -----------------  -----------------  -----------------
         C            0.006693528323    -0.279637224262    -0.800657894312    12.000000000000
         O           -1.082449924363    -0.421790259210    -1.488009949304    15.994914619560
         F            1.062802919574    -0.023956486458     1.295002973653    18.998403224000
         F           -1.097540296949     0.080594509799     1.276019061556    18.998403224000
         H            0.977178856231     2.910158820172    -1.818849957232     1.007825032070
         C            1.210429673681     1.867745006711    -1.614497179894    12.000000000000
         H            1.400921277045     1.327364042081    -2.544543421282     1.007825032070
         H            2.068481200267     1.802670198536    -0.948289164455     1.007825032070
         O            0.082405440961     1.298677551225    -0.934784006658    15.994914619560
         H           -0.815824867107     0.946670755852    -1.521709556490     1.007825032070
         C           -0.049907967661    -0.505361914600     0.713694707408    12.000000000000
         F           -0.104426112788    -1.814354521104     0.969130055961    18.998403224000
         H            0.966199620589    -0.661243005328    -1.191145669509     1.007825032070

  Basis Set: 6-311++G(D,P)
    Blend: 6-311++G(D,P)
  Basis Set: (6-311++G(D,P) AUX)
    Blend: AUG-CC-PVTZ-JKFIT

  -Total Gradient:
     Atom            X                  Y                   Z
    ------   -----------------  -----------------  -----------------
       1        0.000026607069    -0.000055767912     0.000050140540
       2        0.000042798097     0.000023777445    -0.000013176386
       3       -0.000099728596     0.000010969255    -0.000044662869
       4       -0.000161663151     0.000107958644     0.000053186993
       5       -0.000003613230     0.000013697140    -0.000021962458
       6       -0.000006193802     0.000008502664     0.000021246400
       7        0.000023426337     0.000013270679    -0.000004920367
       8        0.000000324498     0.000032637239    -0.000003780407
       9        0.000015228432     0.000076347982    -0.000054553607
      10       -0.000003085478    -0.000062394908    -0.000038849306
      11        0.000265510133     0.000100916236    -0.000009536237
      12        0.000010324895    -0.000088329635     0.000026645535
      13        0.000023157621     0.000034466909    -0.000018551056

  Vibration                       1                   8                   9
  Freq [cm^-1]                1390.2911i           67.0204             99.8664
  Irrep                           A                   A                   A
  Reduced mass [u]              1.2126              7.4382              3.6040
  Force const [mDyne/A]        -1.3809              0.0197              0.0212

  Vibration                       10                  11                  12
  Freq [cm^-1]                 185.2837            222.1540            231.1312
  Irrep                           A                   A                   A
  Reduced mass [u]              1.8076              2.3361              3.8108
  Force const [mDyne/A]         0.0366              0.0679              0.1199

  Vibration                       13                  14                  15
  Freq [cm^-1]                 283.9090            365.1746            422.3057
  Irrep                           A                   A                   A
  Reduced mass [u]              5.5025              7.4341             11.1811
  Force const [mDyne/A]         0.2613              0.5841              1.1749

  Vibration                       16                  17                  18
  Freq [cm^-1]                 537.2064            563.6513            695.3356
  Irrep                           A                   A                   A
  Reduced mass [u]             12.1751             12.9160              7.2733
  Force const [mDyne/A]         2.0702              2.4177              2.0719

  Vibration                       19                  20                  21
  Freq [cm^-1]                 723.9940            778.8593            875.7078
  Irrep                           A                   A                   A
  Reduced mass [u]              4.4239              7.2411              5.4325
  Force const [mDyne/A]         1.3662              2.5881              2.4545

  Vibration                       22                  23                  24
  Freq [cm^-1]                1056.8810           1129.1663           1184.2185
  Irrep                           A                   A                   A
  Reduced mass [u]              1.6174              2.4961              1.4026
  Force const [mDyne/A]         1.0644              1.8751              1.1589

  Vibration                       25                  26                  27
  Freq [cm^-1]                1212.9273           1222.1366           1258.6903
  Irrep                           A                   A                   A
  Reduced mass [u]              5.8886              1.9798              1.9929
  Force const [mDyne/A]         5.1043              1.7422              1.8603

  Vibration                       28                  29                  30
  Freq [cm^-1]                1264.3366           1347.8124           1362.7065
  Irrep                           A                   A                   A
  Reduced mass [u]              1.3370              5.6131              1.9234
  Force const [mDyne/A]         1.2592              6.0077              2.1044

  Vibration                       31                  32                  33
  Freq [cm^-1]                1474.9353           1502.0473           1511.4798
  Irrep                           A                   A                   A
  Reduced mass [u]              1.1823              1.0683              1.0560
  Force const [mDyne/A]         1.5154              1.4201              1.4215

  Vibration                       34                  35                  36
  Freq [cm^-1]                1536.6051           2214.8090           2998.3213
  Irrep                           A                   A                   A
  Reduced mass [u]              3.2432              1.0618              1.0861
  Force const [mDyne/A]         4.5117              3.0687              5.7525

  Vibration                       37                  38                  39
  Freq [cm^-1]                3078.0891           3170.5745           3197.3841
  Irrep                           A                   A                   A
  Reduced mass [u]              1.0336              1.1030              1.1085
  Force const [mDyne/A]         5.7700              6.5325              6.6768

  ==> Thermochemistry Components <==

  Entropy, S
    Electronic S            0.000 [cal/(mol K)]        0.000 [J/(mol K)]       0.00000000 [mEh/K] (multiplicity = 1)
    Translational S        40.501 [cal/(mol K)]      169.455 [J/(mol K)]       0.06454191 [mEh/K] (mol. weight = 130.0242 [u], P = 101325.00 [Pa])
    Rotational S           28.297 [cal/(mol K)]      118.394 [J/(mol K)]       0.04509395 [mEh/K] (symmetry no. = 1)
    Vibrational S          19.739 [cal/(mol K)]       82.586 [J/(mol K)]       0.03145531 [mEh/K]
  Total S                  88.536 [cal/(mol K)]      370.435 [J/(mol K)]       0.14109117 [mEh/K]
  Correction S              0.000 [cal/(mol K)]        0.000 [J/(mol K)]       0.00000000 [mEh/K]

  Constant volume heat capacity, Cv
    Electronic Cv           0.000 [cal/(mol K)]        0.000 [J/(mol K)]       0.00000000 [mEh/K]
    Translational Cv        2.981 [cal/(mol K)]       12.472 [J/(mol K)]       0.00475022 [mEh/K]
    Rotational Cv           2.981 [cal/(mol K)]       12.472 [J/(mol K)]       0.00475022 [mEh/K]
    Vibrational Cv         21.229 [cal/(mol K)]       88.822 [J/(mol K)]       0.03383039 [mEh/K]
  Total Cv                 27.191 [cal/(mol K)]      113.765 [J/(mol K)]       0.04333083 [mEh/K]
  Correction Cv             0.000 [cal/(mol K)]        0.000 [J/(mol K)]       0.00000000 [mEh/K]

  Constant pressure heat capacity, Cp
    Electronic Cp           0.000 [cal/(mol K)]        0.000 [J/(mol K)]       0.00000000 [mEh/K]
    Translational Cp        4.968 [cal/(mol K)]       20.786 [J/(mol K)]       0.00791704 [mEh/K]
    Rotational Cp           2.981 [cal/(mol K)]       12.472 [J/(mol K)]       0.00475022 [mEh/K]
    Vibrational Cp         21.229 [cal/(mol K)]       88.822 [J/(mol K)]       0.03383039 [mEh/K]
  Total Cp                 29.178 [cal/(mol K)]      122.080 [J/(mol K)]       0.04649765 [mEh/K]
  Correction Cp             0.000 [cal/(mol K)]        0.000 [J/(mol K)]       0.00000000 [mEh/K]

  ==> Thermochemistry Energy Analysis <==

  Raw electronic energy, E0
  Total E0, Electronic energy at well bottom at 0 [K]                 -567.20006846 [Eh]

  Zero-point energy, ZPE_vib = Sum_i nu_i / 2
    Electronic ZPE          0.000 [kcal/mol]        0.000 [kJ/mol]       0.00000000 [Eh]
    Translational ZPE       0.000 [kcal/mol]        0.000 [kJ/mol]       0.00000000 [Eh]
    Rotational ZPE          0.000 [kcal/mol]        0.000 [kJ/mol]       0.00000000 [Eh]
    Vibrational ZPE        54.002 [kcal/mol]      225.943 [kJ/mol]       0.08605713 [Eh]       18887.354 [cm^-1]
  Correction ZPE           54.002 [kcal/mol]      225.943 [kJ/mol]       0.08605713 [Eh]       18887.354 [cm^-1]
  Total ZPE, Electronic energy at 0 [K]                               -567.11401134 [Eh]

  Thermal Energy, E (includes ZPE)
    Electronic E            0.000 [kcal/mol]        0.000 [kJ/mol]       0.00000000 [Eh]
    Translational E         0.889 [kcal/mol]        3.718 [kJ/mol]       0.00141628 [Eh]
    Rotational E            0.889 [kcal/mol]        3.718 [kJ/mol]       0.00141628 [Eh]
    Vibrational E          57.226 [kcal/mol]      239.433 [kJ/mol]       0.09119531 [Eh]
  Correction E             59.003 [kcal/mol]      246.870 [kJ/mol]       0.09402786 [Eh]
  Total E, Electronic energy at  298.15 [K]                           -567.10604060 [Eh]

  Enthalpy, H_trans = E_trans + k_B * T
    Electronic H            0.000 [kcal/mol]        0.000 [kJ/mol]       0.00000000 [Eh]
    Translational H         1.481 [kcal/mol]        6.197 [kJ/mol]       0.00236046 [Eh]
    Rotational H            0.889 [kcal/mol]        3.718 [kJ/mol]       0.00141628 [Eh]
    Vibrational H          57.226 [kcal/mol]      239.433 [kJ/mol]       0.09119531 [Eh]
  Correction H             59.596 [kcal/mol]      249.349 [kJ/mol]       0.09497205 [Eh]
  Total H, Enthalpy at  298.15 [K]                                    -567.10509642 [Eh]

  Gibbs free energy, G = H - T * S
    Electronic G            0.000 [kcal/mol]        0.000 [kJ/mol]       0.00000000 [Eh]
    Translational G       -10.594 [kcal/mol]      -44.326 [kJ/mol]      -0.01688271 [Eh]
    Rotational G           -7.548 [kcal/mol]      -31.581 [kJ/mol]      -0.01202848 [Eh]
    Vibrational G          51.341 [kcal/mol]      214.810 [kJ/mol]       0.08181691 [Eh]
  Correction G             33.199 [kcal/mol]      138.904 [kJ/mol]       0.05290572 [Eh]
  Total G, Free enthalpy at  298.15 [K]                               -567.14716275 [Eh]

*** Psi4 exiting successfully. Buy a developer a beer!
