                               Psi4 1.2.1 release

  ==> Input File <==

--------------------------------------------------------------------------
molecule{
0 1
    C            0.230223016669    -0.361073813614     0.034916906978
    O           -1.152258456006    -0.154071239465     0.075175394608
    O            1.048229023912     0.530856179754    -0.061057027549
    H            0.493185194724    -1.419201899633     0.174977883284
    H           -1.583388633620    -0.261404487986    -0.814796243518
}

set{
   basis 3-21G
   freeze_core True
   reference uhf
   full_hess_every 0
   normal_modes_write True
}

set_num_threads(1)
frequencies('b3lyp')
--------------------------------------------------------------------------

    Molecular point group: c1
  Charge       = 0
  Multiplicity = 1
  Basis Set: 3-21G
    Blend: 3-21G
  Basis Set: (3-21G AUX)
    Blend: DEF2-SVP-JKFIT
  @DF-UKS Final Energy:  -188.67465402667705
    Total Energy =                       -188.6746540266769898
    Molecular point group: c1
  Basis Set: 3-21G
    Blend: 3-21G
  Basis Set: (3-21G AUX)
    Blend: DEF2-SVP-JKFIT
  Basis Set: 3-21G
    Blend: 3-21G
  Basis Set: (3-21G AUX)
    Blend: DEF2-SVP-JKFIT
  @DF-UKS Final Energy:  -188.67465251222814
    Total Energy =                       -188.6746525122281355
  Basis Set: 3-21G
    Blend: 3-21G
  Basis Set: (3-21G AUX)
    Blend: DEF2-SVP-JKFIT
  Basis Set: 3-21G
    Blend: 3-21G
  @DF-UKS Final Energy:  -188.67465355334895
    Total Energy =                       -188.6746535533489748
  @DF-UKS Final Energy:  -188.67465279778310
    Total Energy =                       -188.6746527977831249
  @DF-UKS Final Energy:  -188.67465279849557
    Total Energy =                       -188.6746527984955719
  @DF-UKS Final Energy:  -188.67465387205868
    Total Energy =                       -188.6746538720586841
  @DF-UKS Final Energy:  -188.67465307359907
    Total Energy =                       -188.6746530735991030
  @DF-UKS Final Energy:  -188.67465346741193
    Total Energy =                       -188.6746534674119573
  @DF-UKS Final Energy:  -188.67465341879000
    Total Energy =                       -188.6746534187900011
  @DF-UKS Final Energy:  -188.67465386865533
    Total Energy =                       -188.6746538686553549
  @DF-UKS Final Energy:  -188.67465310195746
    Total Energy =                       -188.6746531019574036
  @DF-UKS Final Energy:  -188.67465112564230
    Total Energy =                       -188.6746511256422707
  @DF-UKS Final Energy:  -188.67465040982171
    Total Energy =                       -188.6746504098217656
  @DF-UKS Final Energy:  -188.67465281777851
    Total Energy =                       -188.6746528177785081
  @DF-UKS Final Energy:  -188.67465229243390
    Total Energy =                       -188.6746522924339047
  @DF-UKS Final Energy:  -188.67465080104449
    Total Energy =                       -188.6746508010444927
  @DF-UKS Final Energy:  -188.67465111171933
    Total Energy =                       -188.6746511117193563
  @DF-UKS Final Energy:  -188.67465175826115
    Total Energy =                       -188.6746517582611204
  Basis Set: (3-21G AUX)
    Blend: DEF2-SVP-JKFIT
  Basis Set: 3-21G
    Blend: 3-21G
  Basis Set: (3-21G AUX)
    Blend: DEF2-SVP-JKFIT
  @DF-UKS Final Energy:  -188.67465140389925
    Total Energy =                       -188.6746514038991904
  Basis Set: 3-21G
    Blend: 3-21G
  Basis Set: (3-21G AUX)
    Blend: DEF2-SVP-JKFIT
    Molecular point group: c1
  Charge       = 0
  Multiplicity = 1
  Basis Set: 3-21G
    Blend: 3-21G
  Basis Set: (3-21G AUX)
    Blend: DEF2-SVP-JKFIT

    Orbital Energies [Eh]
    ---------------------

    Alpha Occupied:

       1A    -19.066568     2A    -19.056945     3A    -10.269459
       4A     -1.099990     5A     -1.026677     6A     -0.638097
       7A     -0.547346     8A     -0.456297     9A     -0.435920
      10A     -0.352378    11A     -0.305570    12A     -0.280795

    Alpha Virtual:

      13A     -0.023289    14A      0.075365    15A      0.147479
      16A      0.278401    17A      0.331782    18A      0.675092
      19A      0.717149    20A      0.801322    21A      0.881762
      22A      0.952910    23A      1.235468    24A      1.462005
      25A      1.519724    26A      1.568260    27A      1.583441
      28A      1.638542    29A      1.725673    30A      2.915031
      31A      3.068558

    Beta Occupied:

       1A    -19.066568     2A    -19.056945     3A    -10.269459
       4A     -1.099990     5A     -1.026677     6A     -0.638097
       7A     -0.547346     8A     -0.456297     9A     -0.435920
      10A     -0.352378    11A     -0.305570    12A     -0.280795

    Beta Virtual:

      13A     -0.023289    14A      0.075365    15A      0.147479
      16A      0.278401    17A      0.331782    18A      0.675092
      19A      0.717149    20A      0.801322    21A      0.881762
      22A      0.952910    23A      1.235468    24A      1.462005
      25A      1.519724    26A      1.568260    27A      1.583441
      28A      1.638542    29A      1.725673    30A      2.915031
      31A      3.068558

    Final Occupation by Irrep:
              A
    DOCC [    12 ]
    SOCC [     0 ]

  Energy converged.

  @DF-UKS Final Energy:  -188.67465402709894

   => Energetics <=

    Nuclear Repulsion Energy =             68.2850938312662095
    One-Electron Energy =                -393.3525095975967929
    Two-Electron Energy =                 155.1826690327507379
    DFT Exchange-Correlation Energy =     -18.7899072935191107
    Empirical Dispersion Energy =           0.0000000000000000
    VV10 Nonlocal Energy =                  0.0000000000000000
    Total Energy =                       -188.6746540270989385

  UHF NO Occupations:
  HONO-2 :   10  A 2.0000000
  HONO-1 :   11  A 2.0000000
  HONO-0 :   12  A 2.0000000
  LUNO+0 :   13  A 0.0000000
  LUNO+1 :   14  A 0.0000000
  LUNO+2 :   15  A 0.0000000
  LUNO+3 :   16  A 0.0000000

Properties will be evaluated at   0.000000,   0.000000,   0.000000 [a0]

Properties computed using the SCF density matrix

  Nuclear Dipole Moment: [e a0]
     X:    -1.0225      Y:    -1.5737      Z:    -0.5997

  Electronic Dipole Moment: [e a0]
     X:     0.5077      Y:     0.7774      Z:    -0.0257

  Dipole Moment: [e a0]
     X:    -0.5149      Y:    -0.7963      Z:    -0.6254     Total:     1.1360

  Dipole Moment: [D]
     X:    -1.3087      Y:    -2.0241      Z:    -1.5897     Total:     2.8873

*** tstop() called on localhost.localdomain at Tue Mar 26 10:29:49 2019
Module time:
	user time   =       3.99 seconds =       0.07 minutes
	system time =       0.10 seconds =       0.00 minutes
	total time  =          4 seconds =       0.07 minutes
Total time:
	user time   =      90.37 seconds =       1.51 minutes
	system time =       1.64 seconds =       0.03 minutes
	total time  =         93 seconds =       1.55 minutes

*** tstart() called on localhost.localdomain
*** at Tue Mar 26 10:29:49 2019

         ------------------------------------------------------------
                                   SCF GRAD
                          Rob Parrish, Justin Turney,
                       Andy Simmonett, and Alex Sokolov
         ------------------------------------------------------------

  ==> Geometry <==

    Molecular point group: c1
    Full point group: C1

    Geometry (in Angstrom), charge = 0, multiplicity = 1:

       Center              X                  Y                   Z               Mass
    ------------   -----------------  -----------------  -----------------  -----------------
         C            0.230223016669    -0.361073813614     0.034916906978    12.000000000000
         O           -1.152258456006    -0.154071239465     0.075175394608    15.994914619560
         O            1.048229023912     0.530856179754    -0.061057027549    15.994914619560
         H            0.493185194724    -1.419201899633     0.174977883284     1.007825032070
         H           -1.583388633620    -0.261404487986    -0.814796243518     1.007825032070

  Nuclear repulsion =   68.285093831266209

  ==> Basis Set <==

  Basis Set: 3-21G
    Blend: 3-21G
    Number of shells: 19
    Number of basis function: 31
    Number of Cartesian functions: 31
    Spherical Harmonics?: false
    Max angular momentum: 1

  ==> DFJKGrad: Density-Fitted SCF Gradients <==

    Gradient:                    1
    J tasked:                  Yes
    K tasked:                  Yes
    wK tasked:                  No
    OpenMP threads:              1
    Integrals threads:           1
    Memory (MB):               375
    Schwarz Cutoff:          0E+00
    Fitting Condition:       1E-12

   => Auxiliary Basis Set <=

  Basis Set: (3-21G AUX)
    Blend: DEF2-SVP-JKFIT
    Number of shells: 87
    Number of basis function: 315
    Number of Cartesian functions: 315
    Spherical Harmonics?: false
    Max angular momentum: 4

  ==> DFT Potential <==

   => Composite Functional: B3LYP <=

    B3LYP Hyb-GGA Exchange-Correlation Functional

    P. J. Stephens, F. J. Devlin, C. F. Chabalowski, and M. J. Frisch, J. Phys. Chem. 98, 11623 (1994)

    Deriv               =              1
    GGA                 =           TRUE
    Meta                =          FALSE

    Exchange Hybrid     =           TRUE
    MP2 Hybrid          =          FALSE

   => Exchange Functionals <=

    0.0800   Slater exchange
    0.7200         Becke 88

   => Exact (HF) Exchange <=

    0.2000               HF

   => Correlation Functionals <=

    0.1900   Vosko, Wilk & Nusair (VWN5_RPA)
    0.8100   Lee, Yang & Parr

   => Molecular Quadrature <=

    Radial Scheme       =       TREUTLER
    Pruning Scheme      =           FLAT
    Nuclear Scheme      =       TREUTLER

    BS radius alpha     =              1
    Pruning alpha       =              1
    Radial Points       =             75
    Spherical Points    =            302
    Total Points        =         107804
    Total Blocks        =            869
    Max Points          =            255
    Max Functions       =             30

  -Total Gradient:
     Atom            X                  Y                   Z
    ------   -----------------  -----------------  -----------------
       1       -0.000329580677    -0.000012025661     0.000178318886
       2        0.000157673064     0.000014599292     0.000029041975
       3        0.000167218296     0.000040331664    -0.000048307159
       4        0.000050542374    -0.000010236230    -0.000078745151
       5       -0.000033643592    -0.000045247829    -0.000089012452

*** tstop() called on localhost.localdomain at Tue Mar 26 10:29:50 2019
Module time:
	user time   =       0.70 seconds =       0.01 minutes
	system time =       0.02 seconds =       0.00 minutes
	total time  =          1 seconds =       0.02 minutes
Total time:
	user time   =      91.07 seconds =       1.52 minutes
	system time =       1.66 seconds =       0.03 minutes
	total time  =         94 seconds =       1.57 minutes

-------------------------------------------------------------

  Computing second-derivative from gradients using projected,
  symmetry-adapted, cartesian coordinates (fd_freq_1).

  19 gradients passed in, including the reference geometry.
  Generating complete list of displacements from unique ones.

-------------------------------------------------------------

  ==> Harmonic Vibrational Analysis <==

  non-mass-weighted Hessian:       Symmetric? True   Hermitian? True   Lin Dep Dim?  6 (0)
  projection of translations (True) and rotations (True) removed 6 degrees of freedom (6)
  total projector:                 Symmetric? True   Hermitian? True   Lin Dep Dim?  6 (6)
  mass-weighted Hessian:           Symmetric? True   Hermitian? True   Lin Dep Dim?  6 (0)
  pre-proj  low-frequency mode:    0.0000i [cm^-1]
  pre-proj  low-frequency mode:    0.0000i [cm^-1]
  pre-proj  low-frequency mode:    0.0000i [cm^-1]
  pre-proj  low-frequency mode:    0.0000  [cm^-1]
  pre-proj  low-frequency mode:    0.0000  [cm^-1]
  pre-proj  low-frequency mode:    0.0000  [cm^-1]
  pre-proj  low-frequency mode:    0.0000  [cm^-1]
  pre-proj  all modes:['614.1541i' '0.0000i' '0.0000i' '0.0000' '0.0000' '0.0000' '0.0000'
 '659.0536' '896.3515' '1043.3571' '1209.7713' '1445.1340' '1777.2129'
 '3004.0484' '3497.7680']
  projected mass-weighted Hessian: Symmetric? True   Hermitian? True   Lin Dep Dim?  6 (6)
  post-proj low-frequency mode:  614.1541i [cm^-1] (V)
  post-proj low-frequency mode:    0.0000i [cm^-1] (TR)
  post-proj low-frequency mode:    0.0000i [cm^-1] (TR)
  post-proj low-frequency mode:    0.0000i [cm^-1] (TR)
  post-proj low-frequency mode:    0.0000i [cm^-1] (TR)
  post-proj low-frequency mode:    0.0000  [cm^-1] (TR)
  post-proj low-frequency mode:    0.0000  [cm^-1] (TR)
  post-proj  all modes:['614.1541i' '0.0000i' '0.0000i' '0.0000i' '0.0000i' '0.0000' '0.0000'
 '659.0536' '896.3515' '1043.3571' '1209.7713' '1445.1340' '1777.2129'
 '3004.0484' '3497.7680']

  Vibration                       1                   8                   9
  Freq [cm^-1]                614.1541i            659.0536            896.3515
  Irrep                           A                   A                   A
  Reduced mass [u]              1.1405              9.8649              1.2861
  Force const [mDyne/A]        -0.2535              2.5246              0.6088
  Turning point v=0 [a0]        0.0000              0.1361              0.3232
  RMS dev v=0 [a0 u^1/2]        0.0000              0.3022              0.2592
  Char temp [K]                 0.0000             948.2299           1289.6483
  ----------------------------------------------------------------------------------
      1   C                0.00  0.01  0.05   -0.06  0.39 -0.05    0.06 -0.03  0.09
      2   O               -0.01 -0.07  0.00   -0.42 -0.25  0.05   -0.08  0.03  0.03
      3   O                0.00  0.00 -0.04    0.49 -0.04  0.00   -0.01  0.01 -0.04
      4   H               -0.00  0.04  0.26   -0.19  0.34 -0.10    0.08 -0.11 -0.52
      5   H                0.13  0.93 -0.19   -0.17 -0.41 -0.08    0.73 -0.08 -0.39

  Vibration                       10                  11                  12
  Freq [cm^-1]                1043.3571           1209.7713           1445.1340
  Irrep                           A                   A                   A
  Reduced mass [u]              4.0084              1.6789              1.1157
  Force const [mDyne/A]         2.5709              1.4477              1.3728
  Turning point v=0 [a0]        0.1697              0.2435              0.2733
  RMS dev v=0 [a0 u^1/2]        0.2402              0.2231              0.2041
  Char temp [K]               1501.1563           1740.5888           2079.2228
  ----------------------------------------------------------------------------------
      1   C                0.29 -0.22 -0.18   -0.10  0.06 -0.18   -0.05  0.03 -0.01
      2   O               -0.24  0.09  0.04    0.06 -0.01  0.08   -0.01  0.02 -0.00
      3   O                0.01  0.08  0.05   -0.02 -0.03  0.04   -0.01 -0.06  0.01
      4   H                0.28 -0.08  0.81   -0.18  0.13  0.53    0.95  0.29  0.00
      5   H               -0.10 -0.00 -0.05    0.72 -0.17 -0.26    0.00  0.03 -0.01

  Vibration                       13                  14                  15
  Freq [cm^-1]                1777.2129           3004.0484           3497.7680
  Irrep                           A                   A                   A
  Reduced mass [u]              9.5928              1.0887              1.0662
  Force const [mDyne/A]        17.8515              5.7885              7.6852
  Turning point v=0 [a0]        0.0840              0.1919              0.1797
  RMS dev v=0 [a0 u^1/2]        0.1840              0.1416              0.1312
  Char temp [K]               2557.0097           4322.1502           5032.5017
  ----------------------------------------------------------------------------------
      1   C                0.50  0.46 -0.03    0.01 -0.08  0.01    0.00 -0.00 -0.00
      2   O               -0.02 -0.02 -0.01    0.00 -0.00  0.00   -0.03 -0.01 -0.05
      3   O               -0.32 -0.35  0.03    0.00  0.00 -0.00    0.00  0.00  0.00
      4   H               -0.39  0.32 -0.10   -0.24  0.96 -0.13    0.00 -0.00  0.00
      5   H               -0.18  0.01  0.07    0.01 -0.01  0.00    0.47  0.10  0.88

  ==> Thermochemistry Components <==

  Entropy, S
    Electronic S            0.000 [cal/(mol K)]        0.000 [J/(mol K)]       0.00000000 [mEh/K] (multiplicity = 1)
    Translational S        37.404 [cal/(mol K)]      156.497 [J/(mol K)]       0.05960663 [mEh/K] (mol. weight = 46.0055 [u], P = 101325.00 [Pa])
    Rotational S           21.150 [cal/(mol K)]       88.493 [J/(mol K)]       0.03370513 [mEh/K] (symmetry no. = 1)
    Vibrational S           0.637 [cal/(mol K)]        2.665 [J/(mol K)]       0.00101487 [mEh/K]
  Total S                  59.191 [cal/(mol K)]      247.655 [J/(mol K)]       0.09432662 [mEh/K]
  Correction S              0.000 [cal/(mol K)]        0.000 [J/(mol K)]       0.00000000 [mEh/K]

  Constant volume heat capacity, Cv
    Electronic Cv           0.000 [cal/(mol K)]        0.000 [J/(mol K)]       0.00000000 [mEh/K]
    Translational Cv        2.981 [cal/(mol K)]       12.472 [J/(mol K)]       0.00475022 [mEh/K]
    Rotational Cv           2.981 [cal/(mol K)]       12.472 [J/(mol K)]       0.00475022 [mEh/K]
    Vibrational Cv          2.064 [cal/(mol K)]        8.635 [J/(mol K)]       0.00328885 [mEh/K]
  Total Cv                  8.025 [cal/(mol K)]       33.578 [J/(mol K)]       0.01278929 [mEh/K]
  Correction Cv             0.000 [cal/(mol K)]        0.000 [J/(mol K)]       0.00000000 [mEh/K]

  Constant pressure heat capacity, Cp
    Electronic Cp           0.000 [cal/(mol K)]        0.000 [J/(mol K)]       0.00000000 [mEh/K]
    Translational Cp        4.968 [cal/(mol K)]       20.786 [J/(mol K)]       0.00791704 [mEh/K]
    Rotational Cp           2.981 [cal/(mol K)]       12.472 [J/(mol K)]       0.00475022 [mEh/K]
    Vibrational Cp          2.064 [cal/(mol K)]        8.635 [J/(mol K)]       0.00328885 [mEh/K]
  Total Cp                 10.013 [cal/(mol K)]       41.893 [J/(mol K)]       0.01595611 [mEh/K]
  Correction Cp             0.000 [cal/(mol K)]        0.000 [J/(mol K)]       0.00000000 [mEh/K]

  ==> Thermochemistry Energy Analysis <==

  Raw electronic energy, E0
  Total E0, Electronic energy at well bottom at 0 [K]                 -188.67465403 [Eh]

  Zero-point energy, ZPE_vib = Sum_i nu_i / 2
    Electronic ZPE          0.000 [kcal/mol]        0.000 [kJ/mol]       0.00000000 [Eh]
    Translational ZPE       0.000 [kcal/mol]        0.000 [kJ/mol]       0.00000000 [Eh]
    Rotational ZPE          0.000 [kcal/mol]        0.000 [kJ/mol]       0.00000000 [Eh]
    Vibrational ZPE        19.346 [kcal/mol]       80.943 [kJ/mol]       0.03082975 [Eh]        6766.346 [cm^-1]
  Correction ZPE           19.346 [kcal/mol]       80.943 [kJ/mol]       0.03082975 [Eh]        6766.346 [cm^-1]
  Total ZPE, Electronic energy at 0 [K]                               -188.64382428 [Eh]

  Thermal Energy, E (includes ZPE)
    Electronic E            0.000 [kcal/mol]        0.000 [kJ/mol]       0.00000000 [Eh]
    Translational E         0.889 [kcal/mol]        3.718 [kJ/mol]       0.00141628 [Eh]
    Rotational E            0.889 [kcal/mol]        3.718 [kJ/mol]       0.00141628 [Eh]
    Vibrational E          19.497 [kcal/mol]       81.573 [kJ/mol]       0.03106969 [Eh]
  Correction E             21.274 [kcal/mol]       89.010 [kJ/mol]       0.03390224 [Eh]
  Total E, Electronic energy at  298.15 [K]                           -188.64075178 [Eh]

  Enthalpy, H_trans = E_trans + k_B * T
    Electronic H            0.000 [kcal/mol]        0.000 [kJ/mol]       0.00000000 [Eh]
    Translational H         1.481 [kcal/mol]        6.197 [kJ/mol]       0.00236046 [Eh]
    Rotational H            0.889 [kcal/mol]        3.718 [kJ/mol]       0.00141628 [Eh]
    Vibrational H          19.497 [kcal/mol]       81.573 [kJ/mol]       0.03106969 [Eh]
  Correction H             21.866 [kcal/mol]       91.489 [kJ/mol]       0.03484643 [Eh]
  Total H, Enthalpy at  298.15 [K]                                    -188.63980760 [Eh]

  Gibbs free energy, G = H - T * S
    Electronic G            0.000 [kcal/mol]        0.000 [kJ/mol]       0.00000000 [Eh]
    Translational G        -9.671 [kcal/mol]      -40.462 [kJ/mol]      -0.01541125 [Eh]
    Rotational G           -5.417 [kcal/mol]      -22.666 [kJ/mol]      -0.00863290 [Eh]
    Vibrational G          19.307 [kcal/mol]       80.779 [kJ/mol]       0.03076710 [Eh]
  Correction G              4.219 [kcal/mol]       17.651 [kJ/mol]       0.00672295 [Eh]
  Total G, Free enthalpy at  298.15 [K]                               -188.66793108 [Eh]

    Psi4 stopped on: Tuesday, 26 March 2019 10:29AM
    Psi4 wall time for execution: 0:01:33.41

*** Psi4 exiting successfully. Buy a developer a beer!
