                               Psi4 1.2.1 release

  ==> Input File <==

--------------------------------------------------------------------------
molecule{
0 1
C -0.4380424513 -0.7493696234 0.2404853738
O -1.5076328731 -0.5320390319 -0.4822817985
H -0.5513805388 -1.1140625746 1.2700688296
H 0.4797461247  -1.1141376056 -0.2501359619
H 0.887007579   2.5450011635  -0.1583395683
C 1.0332212228  1.4652938919  -0.1151580244
H 1.2140026283  1.0752833278  -1.1224483803
H 1.884809949   1.2437477831  0.5289964708
O -0.1473001226 0.8822680634  0.4567112565
H -1.0836705182 0.7002076057  -0.2286611973
}

set{
   basis 6-311++G(d,p)
   freeze_core True
   opt_type ts
}

set_num_threads(32)
optimize('m06-2x')
--------------------------------------------------------------------------

    Molecular point group: c1
  Charge       = 0
  Multiplicity = 1
  Basis Set: 6-311++G(D,P)
    Blend: 6-311++G(D,P)
  Basis Set: (6-311++G(D,P) AUX)
    Blend: AUG-CC-PVTZ-JKFIT
  @DF-RKS Final Energy:  -230.14536686619385
    Total Energy =                       -230.1453668661938536
    Molecular point group: c1
  Basis Set: 6-311++G(D,P)
    Blend: 6-311++G(D,P)
  Basis Set: (6-311++G(D,P) AUX)
    Blend: AUG-CC-PVTZ-JKFIT
  Basis Set: 6-311++G(D,P)
    Blend: 6-311++G(D,P)
  Basis Set: (6-311++G(D,P) AUX)
    Blend: AUG-CC-PVTZ-JKFIT
  @DF-RKS Final Energy:  -230.14609865521001
    Total Energy =                       -230.1460986552100110
  Basis Set: 6-311++G(D,P)
    Blend: 6-311++G(D,P)
  Basis Set: (6-311++G(D,P) AUX)
    Blend: AUG-CC-PVTZ-JKFIT
  Basis Set: 6-311++G(D,P)
    Blend: 6-311++G(D,P)
  @DF-RKS Final Energy:  -230.14584970834190
    Total Energy =                       -230.1458497083418990
  @DF-RKS Final Energy:  -230.14631523154142
    Total Energy =                       -230.1463152315414220
  @DF-RKS Final Energy:  -230.14666364122894
    Total Energy =                       -230.1466636412289404
  @DF-RKS Final Energy:  -230.14512606011195
    Total Energy =                       -230.1451260601119486
  @DF-RKS Final Energy:  -230.14391534662104
    Total Energy =                       -230.1439153466210428
  @DF-RKS Final Energy:  -230.14483056349025
    Total Energy =                       -230.1448305634902454
  @DF-RKS Final Energy:  -230.14500441468431
    Total Energy =                       -230.1450044146843084
  @DF-RKS Final Energy:  -230.14698970463130
    Total Energy =                       -230.1469897046312951
  @DF-RKS Final Energy:  -230.14630883949584
    Total Energy =                       -230.1463088394958447
  @DF-RKS Final Energy:  -230.14575996730684
    Total Energy =                       -230.1457599673068444
  @DF-RKS Final Energy:  -230.14586219660279
    Total Energy =                       -230.1458621966027920
  @DF-RKS Final Energy:  -230.14586044198683
    Total Energy =                       -230.1458604419868266
  @DF-RKS Final Energy:  -230.14592304094478
    Total Energy =                       -230.1459230409447798
  Basis Set: (6-311++G(D,P) AUX)
    Blend: AUG-CC-PVTZ-JKFIT
  Basis Set: 6-311++G(D,P)
    Blend: 6-311++G(D,P)
  Basis Set: (6-311++G(D,P) AUX)
    Blend: AUG-CC-PVTZ-JKFIT
  @DF-RKS Final Energy:  -230.14592923430430
    Total Energy =                       -230.1459292343043046
  Basis Set: 6-311++G(D,P)
    Blend: 6-311++G(D,P)
  Basis Set: (6-311++G(D,P) AUX)
    Blend: AUG-CC-PVTZ-JKFIT
  Charge       = 0
  Multiplicity = 1
  Basis Set: 6-311++G(D,P)
    Blend: 6-311++G(D,P)
  Basis Set: (6-311++G(D,P) AUX)
    Blend: AUG-CC-PVTZ-JKFIT

    Orbital Energies [Eh]
    ---------------------

    Doubly Occupied:

       1A    -19.687434     2A    -19.574571     3A    -10.650707
       4A    -10.613291     5A     -1.224623     6A     -1.100705
       7A     -0.821400     8A     -0.741042     9A     -0.635312
      10A     -0.587613    11A     -0.562532    12A     -0.515872
      13A     -0.488272    14A     -0.452191    15A     -0.444535
      16A     -0.345921    17A     -0.317949

  @DF-RKS Final Energy:  -230.14593004850349

   => Energetics <=

    Nuclear Repulsion Energy =            134.6807796249874514
    One-Electron Energy =                -580.1290104537739580
    Two-Electron Energy =                 229.8527940504735341
    DFT Exchange-Correlation Energy =     -14.5504932701905201
    Empirical Dispersion Energy =           0.0000000000000000
    VV10 Nonlocal Energy =                  0.0000000000000000
    Total Energy =                       -230.1459300485034873

  Dipole Moment: [D]
     X:     3.6698      Y:     1.5021      Z:     0.8790     Total:     4.0616

    Molecular point group: c1
  Basis Set: 6-311++G(D,P)
    Blend: 6-311++G(D,P)
  Basis Set: (6-311++G(D,P) AUX)
    Blend: AUG-CC-PVTZ-JKFIT

  -Total Gradient:
     Atom            X                  Y                   Z
    ------   -----------------  -----------------  -----------------
       1       -0.000242716751    -0.000235131527    -0.000195477453
       2        0.000031330617    -0.000005056391     0.000047033245
       3        0.000051493843     0.000080329883     0.000116474093
       4        0.000097436074     0.000098328271     0.000074883577
       5        0.000023438760     0.000035647450     0.000020454504
       6       -0.000097554625    -0.000026678201     0.000051750352
       7       -0.000015325777     0.000037518588     0.000004767892
       8        0.000013346464     0.000018799125    -0.000010512010
       9        0.000088157482     0.000232533493     0.000010118003
      10        0.000048506886    -0.000208256057     0.000147385061

  **** Optimization is complete! (in 17 steps) ****
    Final optimized geometry and variables:
    Molecular point group: c1

    Geometry (in Angstrom), charge = 0, multiplicity = 1:

    C           -0.185114839068    -1.002440288444     0.212164275656
    O           -1.195906128921    -0.785329963826    -0.581486258520
    H           -0.372430959452    -1.387591664993     1.222064929873
    H            0.765146042402    -1.361098193307    -0.215437356320
    H            1.190086881801     2.220329143677    -0.097656414572
    C            1.281909007356     1.135439298381    -0.095807387788
    H            1.403809863138     0.768530080675    -1.119129706079
    H            2.137905808347     0.844794785632     0.511433014177
    O            0.099703943024     0.588170584466     0.488577911428
    H           -0.786333714816     0.460501847375    -0.212193106817

*** Psi4 exiting successfully. Buy a developer a beer!
