                               Psi4 1.2.1 release

  ==> Input File <==

--------------------------------------------------------------------------
molecule{
0 1
C       -0.2199932644     -1.1872715186      0.1094348180
O       -1.0271672008     -0.9425249395     -0.7495534682
H        0.1564614487     -0.5116969893      2.0797023623
H       -1.5577358025     -0.9287351352      1.7592148759
C       -0.5205500375     -1.2068567218      1.5775470659
H       -0.3270794502     -2.2074751784      1.9740911647
H        0.8283432408     -1.4193569154     -0.1650229424
}

set{
   basis 6-311++G(d,p)
   freeze_core True
   cubeprop_tasks ['ESP']
}

set_num_threads(32)
e, wfn = energy('m06-2x', return_wfn=True)
cubeprop(wfn)
--------------------------------------------------------------------------

    Molecular point group: c1

    Geometry (in Angstrom), charge = 0, multiplicity = 1:

       Center              X                  Y                   Z               Mass
    ------------   -----------------  -----------------  -----------------  -----------------
         C            0.375629698522    -0.076295686988    -0.207351898457    12.000000000000
         O           -0.431544237878     0.168450892112    -1.066340184657    15.994914619560
         H            0.752084411622     0.599278842312     1.762915645843     1.007825032070
         H           -0.962112839578     0.182240696412     1.442428159443     1.007825032070
         C            0.075072925422    -0.095880890188     1.260760349443    12.000000000000
         H            0.268543512722    -1.096499346788     1.657304448243     1.007825032070
         H            1.423966203722    -0.308381083788    -0.481809658857     1.007825032070

  Charge       = 0
  Multiplicity = 1
  Basis Set: 6-311++G(D,P)
    Blend: 6-311++G(D,P)
  Basis Set: (6-311++G(D,P) AUX)
    Blend: AUG-CC-PVTZ-JKFIT

    Orbital Energies [Eh]
    ---------------------

    Doubly Occupied:

       1A    -19.630919     2A    -10.637500     3A    -10.550531
       4A     -1.182277     5A     -0.856808     6A     -0.671630
       7A     -0.565662     8A     -0.523267     9A     -0.520455
      10A     -0.470622    11A     -0.439286    12A     -0.336342

  @DF-RKS Final Energy:  -153.80451192609456

   => Energetics <=

    Nuclear Repulsion Energy =             69.8934798817261935
    One-Electron Energy =                -346.3495904084475114
    Two-Electron Energy =                 132.7004428087217889
    DFT Exchange-Correlation Energy =     -10.0488442080950335
    Empirical Dispersion Energy =           0.0000000000000000
    VV10 Nonlocal Energy =                  0.0000000000000000
    Total Energy =                       -153.8045119260945626

  Dipole Moment: [D]
     X:     1.6229      Y:    -0.5440      Z:     2.4269     Total:     2.9698

  Basis Set: 6-311++G(D,P)
    Blend: 6-311++G(D,P)
*** Psi4 exiting successfully. Buy a developer a beer!
