                         Program Version 4.1.1  - RELEASE  -
|  1> !B3LYP SV(P) OptTS NumFreq
|  2>
|  3> *xyz 0 1
|  4> C      0.162167     0.405264    -0.066274
|  5> O     -1.090890     0.357340    -0.141363
|  6> O      1.117341     1.076332    -0.129785
|  7> H      0.424780    -0.999507     0.219049
|  8> H     -0.613397    -0.839429     0.118374
|  9> *
| 10>
| 11>                          ****END OF INPUT****
 Total Charge           Charge          ....    0
 Multiplicity           Mult            ....    1
 Number of Electrons    NEL             ....   24
FINAL SINGLE POINT ENERGY      -189.403313960614
FINAL SINGLE POINT ENERGY      -189.400655066050
FINAL SINGLE POINT ENERGY      -189.408372882049
FINAL SINGLE POINT ENERGY      -189.403522154584
FINAL SINGLE POINT ENERGY      -189.403207361938
FINAL SINGLE POINT ENERGY      -189.403259746772
FINAL SINGLE POINT ENERGY      -189.403009037623
FINAL SINGLE POINT ENERGY      -189.403306635545
FINAL SINGLE POINT ENERGY      -189.403304067127
FINAL SINGLE POINT ENERGY      -189.403313603745
FINAL SINGLE POINT ENERGY      -189.403314380877
FINAL SINGLE POINT ENERGY      -189.403314514705
FINAL SINGLE POINT ENERGY      -189.403314575252
                    ***********************HURRAY********************

CARTESIAN COORDINATES (ANGSTROEM)
---------------------------------
  C      0.162617    0.405722   -0.066577
  O     -1.090728    0.357504   -0.139142
  O      1.117742    1.076473   -0.132748
  H      0.424305   -1.000252    0.218887
  H     -0.613935   -0.839448    0.119581

 Multiplicity           Mult            ....    1
 Number of Electrons    NEL             ....   24
 Basis Dimension        Dim             ....   46

ORBITAL ENERGIES
----------------

  NO   OCC          E(Eh)            E(eV)
   0   2.0000     -19.198153      -522.4083
   1   2.0000     -19.192018      -522.2413
   2   2.0000     -10.389412      -282.7103
   3   2.0000      -1.137717       -30.9588
   4   2.0000      -1.079835       -29.3838
   5   2.0000      -0.624422       -16.9914
   6   2.0000      -0.550545       -14.9811
   7   2.0000      -0.503836       -13.7101
   8   2.0000      -0.498264       -13.5585
   9   2.0000      -0.393568       -10.7095
  10   2.0000      -0.356342        -9.6966
  11   2.0000      -0.311926        -8.4879
  12   0.0000      -0.053595        -1.4584
  13   0.0000      -0.002321        -0.0632
  14   0.0000       0.073680         2.0049
  15   0.0000       0.164000         4.4627
  16   0.0000       0.303582         8.2609

MULLIKEN ATOMIC CHARGES
-----------------------
   0 C :    0.169926
   1 O :   -0.288643
   2 O :   -0.093860
   3 H :   -0.100126
   4 H :    0.312702
Sum of atomic charges:   -0.0000000

LOEWDIN ATOMIC CHARGES
----------------------
   0 C :    0.045597
   1 O :   -0.254184
   2 O :   -0.054530
   3 H :   -0.046946
   4 H :    0.310063

  Mayer bond orders larger than 0.1
B(  0-C ,  1-O ) :   1.4777 B(  0-C ,  2-O ) :   2.1725 B(  0-C ,  3-H ) :   0.5050
B(  0-C ,  4-H ) :   0.1623 B(  1-O ,  2-O ) :   0.1397 B(  1-O ,  3-H ) :   0.1202
B(  1-O ,  4-H ) :   0.3214 B(  2-O ,  4-H ) :   0.1154 B(  3-H ,  4-H ) :   0.2808

FINAL SINGLE POINT ENERGY      -189.403314577124

DIPOLE MOMENT
-------------
                                X             Y             Z
Electronic contribution:      0.17268       2.14212      -0.39467
Nuclear contribution   :     -0.26837      -2.77982       0.51264
                        -----------------------------------------
Total Dipole Moment    :     -0.09569      -0.63769       0.11797
                        -----------------------------------------
Magnitude (a.u.)       :      0.65554
Magnitude (Debye)      :      1.66624

VIBRATIONAL FREQUENCIES
-----------------------

Scaling factor for frequencies =  1.000000000 (already applied!)

   0:         0.00 cm**-1
   1:         0.00 cm**-1
   2:         0.00 cm**-1
   3:         0.00 cm**-1
   4:         0.00 cm**-1
   5:         0.00 cm**-1
   6:     -2280.36 cm**-1 ***imaginary mode***
   7:       572.43 cm**-1
   8:       734.74 cm**-1
   9:       853.81 cm**-1
  10:      1083.29 cm**-1
  11:      1359.60 cm**-1
  12:      1667.67 cm**-1
  13:      2025.60 cm**-1
  14:      2155.13 cm**-1

IR SPECTRUM
-----------

 Mode    freq (cm**-1)   T**2         TX         TY         TZ
-------------------------------------------------------------------
   7:       572.43    1.465361  ( -0.083020   0.323477  -1.163543)
   8:       734.74  165.945687  ( -3.428159  12.152030  -2.553740)
   9:       853.81  337.042777  ( -5.155288  17.213411  -3.763544)
  10:      1083.29   79.637779  (  0.670435  -1.993217  -8.672680)
  11:      1359.60  199.128693  ( -9.346781  10.279310  -2.470254)
  12:      1667.67  155.743601  (  0.242145 -12.276128   2.231959)
  13:      2025.60  130.509698  ( -9.222847   6.479077  -1.862887)
  14:      2155.13  533.505965  (-21.587744  -8.212092   0.191932)

--------------------------
THERMOCHEMISTRY AT 298.15K
--------------------------

Temperature         ... 298.15 K
Pressure            ... 1.00 atm
Total Mass          ... 46.03 AMU

Throughout the following assumptions are being made:
  (1) The electronic state is orbitally nondegenerate
  (2) There are no thermally accessible electronically excited states
  (3) Hindered rotations indicated by low frequency modes are not
      treated as such but are treated as vibrations and this may
      cause some error
  (4) All equations used are the standard statistical mechanics
      equations for an ideal gas
  (5) All vibrations are strictly harmonic

freq.     572.43  E(vib)   ...       0.11
freq.     734.74  E(vib)   ...       0.06
freq.     853.81  E(vib)   ...       0.04
freq.    1083.29  E(vib)   ...       0.02
freq.    1359.60  E(vib)   ...       0.01
freq.    1667.67  E(vib)   ...       0.00
freq.    2025.60  E(vib)   ...       0.00
freq.    2155.13  E(vib)   ...       0.00

------------
INNER ENERGY
------------

The inner energy is: U= E(el) + E(ZPE) + E(vib) + E(rot) + E(trans)
    E(el)   - is the total energy from the electronic structure calculation
              = E(kin-el) + E(nuc-el) + E(el-el) + E(nuc-nuc)
    E(ZPE)  - the the zero temperature vibrational energy from the frequency calculation
    E(vib)  - the the finite temperature correction to E(ZPE) due to population
              of excited vibrational states
    E(rot)  - is the rotational thermal energy
    E(trans)- is the translational thermal energy

Summary of contributions to the inner energy U:
Electronic energy                ...   -189.40331458 Eh
Zero point energy                ...      0.02381203 Eh      14.94 kcal/mol
Thermal vibrational correction   ...      0.00037816 Eh       0.24 kcal/mol
Thermal rotational correction    ...      0.00141627 Eh       0.89 kcal/mol
Thermal translational correction ...      0.00141627 Eh       0.89 kcal/mol
-----------------------------------------------------------------------
Total thermal energy                   -189.37629185 Eh

Summary of corrections to the electronic energy:
(perhaps to be used in another calculation)
Total thermal correction                  0.00321070 Eh       2.01 kcal/mol
Non-thermal (ZPE) correction              0.02381203 Eh      14.94 kcal/mol
-----------------------------------------------------------------------
Total correction                          0.02702273 Eh      16.96 kcal/mol

--------
ENTHALPY
--------

The enthalpy is H = U + kB*T
                kB is Boltzmann's constant
Total free energy                 ...   -189.37629185 Eh
Thermal Enthalpy correction       ...      0.00094421 Eh       0.59 kcal/mol
-----------------------------------------------------------------------
Total Enthalpy                    ...   -189.37534764 Eh

Note: Rotational entropy computed according to Herzberg
Infrared and Raman Spectra, Chapter V,1, Van Nostrand Reinhold, 1945
Point Group:  C1, Symmetry Number:   1
Rotational constants in cm-1:     3.221520     0.379628     0.339608

Vibrational entropy computed according to the QRRHO of S. Grimme
Chem.Eur.J. 2012 18 9955

-------
ENTROPY
-------

The entropy contributions are T*S = T*(S(el)+S(vib)+S(rot)+S(trans))
     S(el)   - electronic entropy
     S(vib)  - vibrational entropy
     S(rot)  - rotational entropy
     S(trans)- translational entropy
The entropies will be listed as mutliplied by the temperature to get
units of energy

Electronic entropy                ...      0.00000000 Eh      0.00 kcal/mol
Vibrational entropy               ...      0.00049009 Eh      0.31 kcal/mol
Rotational entropy                ...      0.00992562 Eh      6.23 kcal/mol
Translational entropy             ...      0.01777224 Eh     11.15 kcal/mol
-----------------------------------------------------------------------
Final entropy term                ...      0.02818795 Eh     17.69 kcal/mol

-------------------
GIBBS FREE ENTHALPY
-------------------

The Gibbs free enthalpy is G = H - T*S

Total enthalpy                    ...   -189.37534764 Eh
Total entropy correction          ...     -0.02818795 Eh    -17.69 kcal/mol
-----------------------------------------------------------------------
Final Gibbs free enthalpy         ...   -189.40353559 Eh

For completeness - the Gibbs free enthalpy minus the electronic energy
G-E(el)                           ...     -0.00022101 Eh     -0.14 kcal/mol

                             ****ORCA TERMINATED NORMALLY****
TOTAL RUN TIME: 0 days 0 hours 2 minutes 31 seconds 388 msec
