                               Psi4 1.2.1 release

  ==> Input File <==

--------------------------------------------------------------------------
molecule{
0 1
    C            0.040730912894    -0.059531542501    -1.173581810046
    O           -1.015897442692    -0.278645628566    -1.886194723693
    CL           1.423690007801     0.380975008283     1.119493608441
    CL          -1.487966445222     0.325334852871     1.062528577890
    H            0.777173124071     3.176101854822    -2.228608122285
    C            1.086340338636     2.157591160917    -2.004506247428
    H            1.317297196309     1.616632953895    -2.925181037624
    H            1.946931589372     2.167092399907    -1.338351605224
    O            0.001885107541     1.521844810258    -1.314974908105
    H           -0.860445825616     1.094766693436    -1.911138440706
    C           -0.019184569429    -0.337087737562     0.350474885726
    CL           0.026415216406    -2.100823252896     0.539121929055
    H            1.034422442460    -0.366745539619    -1.540405832948

}

set{
   basis 6-311++G(d,p)
   freeze_core True
   normal_modes_write True
}

set_num_threads(16)
frequencies('m06-2x')
--------------------------------------------------------------------------

    Molecular point group: c1
  Charge       = 0
  Multiplicity = 1
  Basis Set: 6-311++G(D,P)
    Blend: 6-311++G(D,P)
  Basis Set: (6-311++G(D,P) AUX)
    Blend: AUG-CC-PVTZ-JKFIT
  @DF-RKS Final Energy: -1648.24360757823479
    Total Energy =                      -1648.2436075782347871
    Molecular point group: c1
  Basis Set: 6-311++G(D,P)
    Blend: 6-311++G(D,P)
  Basis Set: (6-311++G(D,P) AUX)
    Blend: AUG-CC-PVTZ-JKFIT
  Basis Set: 6-311++G(D,P)
    Blend: 6-311++G(D,P)
  Basis Set: (6-311++G(D,P) AUX)
    Blend: AUG-CC-PVTZ-JKFIT
  @DF-RKS Final Energy: -1648.24360651767620
    Total Energy =                      -1648.2436065176761986
  Basis Set: 6-311++G(D,P)
    Blend: 6-311++G(D,P)
  Basis Set: (6-311++G(D,P) AUX)
    Blend: AUG-CC-PVTZ-JKFIT
  Basis Set: 6-311++G(D,P)
    Blend: 6-311++G(D,P)
  @DF-RKS Final Energy: -1648.24360697771044
    Total Energy =                      -1648.2436069777104422
  @DF-RKS Final Energy: -1648.24360701060186
    Total Energy =                      -1648.2436070106016359
  @DF-RKS Final Energy: -1648.24360763623963
    Total Energy =                      -1648.2436076362396307
  @DF-RKS Final Energy: -1648.24360686823229
    Total Energy =                      -1648.2436068682322912
  @DF-RKS Final Energy: -1648.24360717226796
    Total Energy =                      -1648.2436071722679571
  @DF-RKS Final Energy: -1648.24360742361750
    Total Energy =                      -1648.2436074236175045
  @DF-RKS Final Energy: -1648.24360712500356
    Total Energy =                      -1648.2436071250035639
  @DF-RKS Final Energy: -1648.24360745541526
    Total Energy =                      -1648.2436074554152583
  @DF-RKS Final Energy: -1648.24360747169931
    Total Energy =                      -1648.2436074716993062
  @DF-RKS Final Energy: -1648.24360747020251
    Total Energy =                      -1648.2436074702025053
  @DF-RKS Final Energy: -1648.24360739766871
    Total Energy =                      -1648.2436073976687112
  @DF-RKS Final Energy: -1648.24360707360324
    Total Energy =                      -1648.2436070736032434
  @DF-RKS Final Energy: -1648.24360792056905
    Total Energy =                      -1648.2436079205690476
  @DF-RKS Final Energy: -1648.24360759637148
    Total Energy =                      -1648.2436075963714757
  @DF-RKS Final Energy: -1648.24360747862374
    Total Energy =                      -1648.2436074786237441
  @DF-RKS Final Energy: -1648.24360761588150
    Total Energy =                      -1648.2436076158815013
  @DF-RKS Final Energy: -1648.24360744178011
    Total Energy =                      -1648.2436074417801137
  @DF-RKS Final Energy: -1648.24360728105944
    Total Energy =                      -1648.2436072810594396
  @DF-RKS Final Energy: -1648.24360562719016
    Total Energy =                      -1648.2436056271901634
  @DF-RKS Final Energy: -1648.24360611023985
    Total Energy =                      -1648.2436061102396252
  @DF-RKS Final Energy: -1648.24360713720807
    Total Energy =                      -1648.2436071372080733
  @DF-RKS Final Energy: -1648.24360737693360
    Total Energy =                      -1648.2436073769335962
  @DF-RKS Final Energy: -1648.24360730956823
    Total Energy =                      -1648.2436073095682332
  @DF-RKS Final Energy: -1648.24360696437429
    Total Energy =                      -1648.2436069643742940
  @DF-RKS Final Energy: -1648.24360744347860
    Total Energy =                      -1648.2436074434785951
  @DF-RKS Final Energy: -1648.24360627513352
    Total Energy =                      -1648.2436062751335157
  @DF-RKS Final Energy: -1648.24360544611886
    Total Energy =                      -1648.2436054461188633
  @DF-RKS Final Energy: -1648.24360758997841
    Total Energy =                      -1648.2436075899784100
  @DF-RKS Final Energy: -1648.24360736856192
    Total Energy =                      -1648.2436073685616975
  @DF-RKS Final Energy: -1648.24360650864992
    Total Energy =                      -1648.2436065086499184
  @DF-RKS Final Energy: -1648.24360613374188
    Total Energy =                      -1648.2436061337418778
  @DF-RKS Final Energy: -1648.24360561251865
    Total Energy =                      -1648.2436056125186497
  @DF-RKS Final Energy: -1648.24360569181476
    Total Energy =                      -1648.2436056918147642
  @DF-RKS Final Energy: -1648.24360726817508
    Total Energy =                      -1648.2436072681750829
  @DF-RKS Final Energy: -1648.24360720016080
    Total Energy =                      -1648.2436072001607954
  @DF-RKS Final Energy: -1648.24360639813722
    Total Energy =                      -1648.2436063981372172
  Basis Set: (6-311++G(D,P) AUX)
    Blend: AUG-CC-PVTZ-JKFIT
  Basis Set: 6-311++G(D,P)
    Blend: 6-311++G(D,P)
  Basis Set: (6-311++G(D,P) AUX)
    Blend: AUG-CC-PVTZ-JKFIT
  @DF-RKS Final Energy: -1648.24360636722508
    Total Energy =                      -1648.2436063672250839
  Basis Set: 6-311++G(D,P)
    Blend: 6-311++G(D,P)
  Basis Set: (6-311++G(D,P) AUX)
    Blend: AUG-CC-PVTZ-JKFIT
    Molecular point group: c1
  Charge       = 0
  Multiplicity = 1
  Basis Set: 6-311++G(D,P)
    Blend: 6-311++G(D,P)
  Basis Set: (6-311++G(D,P) AUX)
    Blend: AUG-CC-PVTZ-JKFIT

    Orbital Energies [Eh]
    ---------------------

    Doubly Occupied:

       1A   -102.701296     2A   -102.697324     3A   -102.694245
       4A    -19.717163     5A    -19.597763     6A    -10.733236
       7A    -10.691089     8A    -10.629762     9A     -9.844051
      10A     -9.839923    11A     -9.836903    12A     -7.569278
      13A     -7.565316    14A     -7.562379    15A     -7.562135
      16A     -7.561989    17A     -7.557880    18A     -7.557726
      19A     -7.554812    20A     -7.554715    21A     -1.260602
      22A     -1.131260    23A     -1.055827    24A     -0.943791
      25A     -0.941790    26A     -0.847592    27A     -0.805542
      28A     -0.687419    29A     -0.658479    30A     -0.613979
      31A     -0.594270    32A     -0.560116    33A     -0.541192
      34A     -0.538927    35A     -0.504852    36A     -0.475173
      37A     -0.473314    38A     -0.425169    39A     -0.422331
      40A     -0.408626    41A     -0.391651    42A     -0.388597
      43A     -0.373780    44A     -0.364703    45A     -0.341826

  @DF-RKS Final Energy: -1648.24360757868862

   => Energetics <=

    Nuclear Repulsion Energy =            679.4635777059511383
    One-Electron Energy =               -3623.4504493361137065
    Two-Electron Energy =                1352.8369135435655153
    DFT Exchange-Correlation Energy =     -57.0936494920916218
    Empirical Dispersion Energy =           0.0000000000000000
    VV10 Nonlocal Energy =                  0.0000000000000000
    Total Energy =                      -1648.2436075786886249

  Dipole Moment: [D]
     X:     2.9702      Y:     3.1702      Z:    -1.5609     Total:     4.6161

    Molecular point group: c1

    Geometry (in Angstrom), charge = 0, multiplicity = 1:

       Center              X                  Y                   Z               Mass
    ------------   -----------------  -----------------  -----------------  -----------------
         C            0.040730912894    -0.059531542501    -1.173581810046    12.000000000000
         O           -1.015897442692    -0.278645628566    -1.886194723693    15.994914619560
         CL           1.423690007801     0.380975008283     1.119493608441    34.968852682000
         CL          -1.487966445222     0.325334852871     1.062528577890    34.968852682000
         H            0.777173124071     3.176101854822    -2.228608122285     1.007825032070
         C            1.086340338636     2.157591160917    -2.004506247428    12.000000000000
         H            1.317297196309     1.616632953895    -2.925181037624     1.007825032070
         H            1.946931589372     2.167092399907    -1.338351605224     1.007825032070
         O            0.001885107541     1.521844810258    -1.314974908105    15.994914619560
         H           -0.860445825616     1.094766693436    -1.911138440706     1.007825032070
         C           -0.019184569429    -0.337087737562     0.350474885726    12.000000000000
         CL           0.026415216406    -2.100823252896     0.539121929055    34.968852682000
         H            1.034422442460    -0.366745539619    -1.540405832948     1.007825032070

  Basis Set: 6-311++G(D,P)
    Blend: 6-311++G(D,P)
  Basis Set: (6-311++G(D,P) AUX)
    Blend: AUG-CC-PVTZ-JKFIT

  -Total Gradient:
     Atom            X                  Y                   Z
    ------   -----------------  -----------------  -----------------
       1       -0.000114585697    -0.000138377517    -0.000055404585
       2        0.000110383635     0.000080187902     0.000082508150
       3       -0.000176300037    -0.000074405129    -0.000044598481
       4       -0.000132479810     0.000069318365     0.000094159878
       5        0.000034762588     0.000022090488     0.000032586345
       6        0.000009375880     0.000020957917     0.000000396265
       7        0.000022765145     0.000028469583     0.000024696979
       8        0.000009368753    -0.000007617960     0.000035486014
       9       -0.000022141954     0.000055128489    -0.000031348691
      10        0.000098056921     0.000079900185     0.000038391659
      11        0.000252036372     0.000054795444    -0.000037032629
      12        0.000025551457    -0.000051173588    -0.000001957954
      13        0.000007735461    -0.000008322817     0.000004822287

  Vibration                       1                   8                   9
  Freq [cm^-1]                1405.9174i           68.9320             89.8822
  Irrep                           A                   A                   A
  Reduced mass [u]              1.2070              4.4536              3.2908
  Force const [mDyne/A]        -1.4056              0.0125              0.0157

  Vibration                       10                  11                  12
  Freq [cm^-1]                 159.5839            196.0741            204.2180
  Irrep                           A                   A                   A
  Reduced mass [u]              3.2091              1.7717              7.3104
  Force const [mDyne/A]         0.0482              0.0401              0.1796

  Vibration                       13                  14                  15
  Freq [cm^-1]                 240.0197            265.9926            277.6130
  Irrep                           A                   A                   A
  Reduced mass [u]              4.5318              9.1329             18.2170
  Force const [mDyne/A]         0.1538              0.3807              0.8272

  Vibration                       16                  17                  18
  Freq [cm^-1]                 327.5992            372.5153            438.3109
  Irrep                           A                   A                   A
  Reduced mass [u]              8.1330              8.8558             20.8098
  Force const [mDyne/A]         0.5143              0.7240              2.3555

  Vibration                       19                  20                  21
  Freq [cm^-1]                 639.7487            707.8643            757.7828
  Irrep                           A                   A                   A
  Reduced mass [u]              5.6793              4.1413              7.7671
  Force const [mDyne/A]         1.3695              1.2226              2.6278

  Vibration                       22                  23                  24
  Freq [cm^-1]                 825.1297            867.6857           1026.4810
  Irrep                           A                   A                   A
  Reduced mass [u]             10.9692              9.6849              2.0069
  Force const [mDyne/A]         4.4002              4.2961              1.2459

  Vibration                       25                  26                  27
  Freq [cm^-1]                1090.3422           1138.0795           1186.3388
  Irrep                           A                   A                   A
  Reduced mass [u]              4.2853              2.1494              1.3352
  Force const [mDyne/A]         3.0016              1.6403              1.1071

  Vibration                       28                  29                  30
  Freq [cm^-1]                1237.3847           1266.1426           1357.4381
  Irrep                           A                   A                   A
  Reduced mass [u]              1.2912              1.2556              1.3407
  Force const [mDyne/A]         1.1648              1.1860              1.4555

  Vibration                       31                  32                  33
  Freq [cm^-1]                1462.7419           1491.4794           1503.6534
  Irrep                           A                   A                   A
  Reduced mass [u]              1.4093              1.5569              1.1683
  Force const [mDyne/A]         1.7766              2.0405              1.5563

  Vibration                       34                  35                  36
  Freq [cm^-1]                1510.0301           2208.3489           3007.9946
  Irrep                           A                   A                   A
  Reduced mass [u]              1.1821              1.0602              1.0864
  Force const [mDyne/A]         1.5880              3.0464              5.7916

  Vibration                       37                  38                  39
  Freq [cm^-1]                3076.8017           3168.3527           3195.6708
  Irrep                           A                   A                   A
  Reduced mass [u]              1.0339              1.1023              1.1083
  Force const [mDyne/A]         5.7666              6.5196              6.6686

  ==> Thermochemistry Components <==

  Entropy, S
    Electronic S            0.000 [cal/(mol K)]        0.000 [J/(mol K)]       0.00000000 [mEh/K] (multiplicity = 1)
    Translational S        41.436 [cal/(mol K)]      173.367 [J/(mol K)]       0.06603206 [mEh/K] (mol. weight = 177.9355 [u], P = 101325.00 [Pa])
    Rotational S           29.972 [cal/(mol K)]      125.402 [J/(mol K)]       0.04776293 [mEh/K] (symmetry no. = 1)
    Vibrational S          24.470 [cal/(mol K)]      102.381 [J/(mol K)]       0.03899497 [mEh/K]
  Total S                  95.877 [cal/(mol K)]      401.150 [J/(mol K)]       0.15278996 [mEh/K]
  Correction S              0.000 [cal/(mol K)]        0.000 [J/(mol K)]       0.00000000 [mEh/K]

  Constant volume heat capacity, Cv
    Electronic Cv           0.000 [cal/(mol K)]        0.000 [J/(mol K)]       0.00000000 [mEh/K]
    Translational Cv        2.981 [cal/(mol K)]       12.472 [J/(mol K)]       0.00475022 [mEh/K]
    Rotational Cv           2.981 [cal/(mol K)]       12.472 [J/(mol K)]       0.00475022 [mEh/K]
    Vibrational Cv         24.788 [cal/(mol K)]      103.711 [J/(mol K)]       0.03950157 [mEh/K]
  Total Cv                 30.749 [cal/(mol K)]      128.655 [J/(mol K)]       0.04900202 [mEh/K]
  Correction Cv             0.000 [cal/(mol K)]        0.000 [J/(mol K)]       0.00000000 [mEh/K]

  Constant pressure heat capacity, Cp
    Electronic Cp           0.000 [cal/(mol K)]        0.000 [J/(mol K)]       0.00000000 [mEh/K]
    Translational Cp        4.968 [cal/(mol K)]       20.786 [J/(mol K)]       0.00791704 [mEh/K]
    Rotational Cp           2.981 [cal/(mol K)]       12.472 [J/(mol K)]       0.00475022 [mEh/K]
    Vibrational Cp         24.788 [cal/(mol K)]      103.711 [J/(mol K)]       0.03950157 [mEh/K]
  Total Cp                 32.736 [cal/(mol K)]      136.969 [J/(mol K)]       0.05216883 [mEh/K]
  Correction Cp             0.000 [cal/(mol K)]        0.000 [J/(mol K)]       0.00000000 [mEh/K]

  ==> Thermochemistry Energy Analysis <==

  Raw electronic energy, E0
  Total E0, Electronic energy at well bottom at 0 [K]                -1648.24360758 [Eh]

  Zero-point energy, ZPE_vib = Sum_i nu_i / 2
    Electronic ZPE          0.000 [kcal/mol]        0.000 [kJ/mol]       0.00000000 [Eh]
    Translational ZPE       0.000 [kcal/mol]        0.000 [kJ/mol]       0.00000000 [Eh]
    Rotational ZPE          0.000 [kcal/mol]        0.000 [kJ/mol]       0.00000000 [Eh]
    Vibrational ZPE        50.559 [kcal/mol]      211.537 [kJ/mol]       0.08057019 [Eh]       17683.110 [cm^-1]
  Correction ZPE           50.559 [kcal/mol]      211.537 [kJ/mol]       0.08057019 [Eh]       17683.110 [cm^-1]
  Total ZPE, Electronic energy at 0 [K]                              -1648.16303739 [Eh]

  Thermal Energy, E (includes ZPE)
    Electronic E            0.000 [kcal/mol]        0.000 [kJ/mol]       0.00000000 [Eh]
    Translational E         0.889 [kcal/mol]        3.718 [kJ/mol]       0.00141628 [Eh]
    Rotational E            0.889 [kcal/mol]        3.718 [kJ/mol]       0.00141628 [Eh]
    Vibrational E          54.535 [kcal/mol]      228.176 [kJ/mol]       0.08690770 [Eh]
  Correction E             56.313 [kcal/mol]      235.613 [kJ/mol]       0.08974026 [Eh]
  Total E, Electronic energy at  298.15 [K]                          -1648.15386732 [Eh]

  Enthalpy, H_trans = E_trans + k_B * T
    Electronic H            0.000 [kcal/mol]        0.000 [kJ/mol]       0.00000000 [Eh]
    Translational H         1.481 [kcal/mol]        6.197 [kJ/mol]       0.00236046 [Eh]
    Rotational H            0.889 [kcal/mol]        3.718 [kJ/mol]       0.00141628 [Eh]
    Vibrational H          54.535 [kcal/mol]      228.176 [kJ/mol]       0.08690770 [Eh]
  Correction H             56.905 [kcal/mol]      238.092 [kJ/mol]       0.09068444 [Eh]
  Total H, Enthalpy at  298.15 [K]                                   -1648.15292314 [Eh]

  Gibbs free energy, G = H - T * S
    Electronic G            0.000 [kcal/mol]        0.000 [kJ/mol]       0.00000000 [Eh]
    Translational G       -10.873 [kcal/mol]      -45.492 [kJ/mol]      -0.01732700 [Eh]
    Rotational G           -8.047 [kcal/mol]      -33.670 [kJ/mol]      -0.01282424 [Eh]
    Vibrational G          47.240 [kcal/mol]      197.651 [kJ/mol]       0.07528135 [Eh]
  Correction G             28.320 [kcal/mol]      118.489 [kJ/mol]       0.04513012 [Eh]
  Total G, Free enthalpy at  298.15 [K]                              -1648.19847746 [Eh]

*** Psi4 exiting successfully. Buy a developer a beer!
