                               Psi4 1.2.1 release

  ==> Input File <==

--------------------------------------------------------------------------
molecule{
0 1
C     -0.036463   -0.723684    0.092533
O     -1.095730   -0.765226   -0.671671
F      0.715155   -0.716144    2.117684
F     -1.048437   -0.461731    1.947694
H      1.009427    2.456861   -1.093603
C      1.205172    1.418682   -0.827951
H      1.327774    0.821422   -1.737008
H      2.111309    1.366217   -0.224377
O      0.108954    0.938119   -0.056948
H     -0.783230    0.533596   -0.652826
C     -0.180937   -0.997975    1.563336
F     -0.352622   -2.070300    1.684973
H      0.920242   -1.066363   -0.336707
}

set{
   basis 6-311++G(d,p)
   freeze_core True
   opt_type ts
}

set_num_threads(16)
optimize('m06-2x')
--------------------------------------------------------------------------

    Molecular point group: c1
  Charge       = 0
  Multiplicity = 1
  Basis Set: 6-311++G(D,P)
    Blend: 6-311++G(D,P)
  Basis Set: (6-311++G(D,P) AUX)
    Blend: AUG-CC-PVTZ-JKFIT
  @DF-RKS Final Energy:  -566.90034486540640
    Total Energy =                       -566.9003448654063959
    Molecular point group: c1
  Basis Set: 6-311++G(D,P)
    Blend: 6-311++G(D,P)
  Basis Set: (6-311++G(D,P) AUX)
    Blend: AUG-CC-PVTZ-JKFIT
  Basis Set: 6-311++G(D,P)
    Blend: 6-311++G(D,P)
  Basis Set: (6-311++G(D,P) AUX)
    Blend: AUG-CC-PVTZ-JKFIT
  @DF-RKS Final Energy:  -567.10889299181383
    Total Energy =                       -567.1088929918138319
  Basis Set: 6-311++G(D,P)
    Blend: 6-311++G(D,P)
  Basis Set: (6-311++G(D,P) AUX)
    Blend: AUG-CC-PVTZ-JKFIT
  Basis Set: 6-311++G(D,P)
    Blend: 6-311++G(D,P)
  @DF-RKS Final Energy:  -567.17864197511881
    Total Energy =                       -567.1786419751188077
  @DF-RKS Final Energy:  -567.19421289513082
    Total Energy =                       -567.1942128951308177
  @DF-RKS Final Energy:  -567.19910576329926
    Total Energy =                       -567.1991057632992579
  @DF-RKS Final Energy:  -567.19998334871741
    Total Energy =                       -567.1999833487174101
  @DF-RKS Final Energy:  -567.20016487354576
    Total Energy =                       -567.2001648735457593
  @DF-RKS Final Energy:  -567.19957555893882
    Total Energy =                       -567.1995755589388182
  @DF-RKS Final Energy:  -567.19991841648516
    Total Energy =                       -567.1999184164851613
  @DF-RKS Final Energy:  -567.19996353596571
    Total Energy =                       -567.1999635359657077
  @DF-RKS Final Energy:  -567.19993995141226
    Total Energy =                       -567.1999399514122615
  @DF-RKS Final Energy:  -567.19997311686245
    Total Energy =                       -567.1999731168624521
  @DF-RKS Final Energy:  -567.20002540371092
    Total Energy =                       -567.2000254037109244
  @DF-RKS Final Energy:  -567.20004980694466
    Total Energy =                       -567.2000498069446621
  @DF-RKS Final Energy:  -567.20006411387976
    Total Energy =                       -567.2000641138797619
  @DF-RKS Final Energy:  -567.20006583239001
    Total Energy =                       -567.2000658323900097
  @DF-RKS Final Energy:  -567.20006817802459
    Total Energy =                       -567.2000681780245941
  @DF-RKS Final Energy:  -567.20006606844527
    Total Energy =                       -567.2000660684452669
  @DF-RKS Final Energy:  -567.20006685848080
    Total Energy =                       -567.2000668584806817
  @DF-RKS Final Energy:  -567.20006539802841
    Total Energy =                       -567.2000653980284142
  @DF-RKS Final Energy:  -567.20006630665944
    Total Energy =                       -567.2000663066594370
  Basis Set: (6-311++G(D,P) AUX)
    Blend: AUG-CC-PVTZ-JKFIT
  Basis Set: 6-311++G(D,P)
    Blend: 6-311++G(D,P)
  Basis Set: (6-311++G(D,P) AUX)
    Blend: AUG-CC-PVTZ-JKFIT
  @DF-RKS Final Energy:  -567.20006744253635
    Total Energy =                       -567.2000674425363513
  Basis Set: 6-311++G(D,P)
    Blend: 6-311++G(D,P)
  Basis Set: (6-311++G(D,P) AUX)
    Blend: AUG-CC-PVTZ-JKFIT
  Charge       = 0
  Multiplicity = 1
  Basis Set: 6-311++G(D,P)
    Blend: 6-311++G(D,P)
  Basis Set: (6-311++G(D,P) AUX)
    Blend: AUG-CC-PVTZ-JKFIT

    Orbital Energies [Eh]
    ---------------------

    Doubly Occupied:

       1A    -25.286141     2A    -25.284329     3A    -25.283505
       4A    -19.723061     5A    -19.598724     6A    -10.803106
       7A    -10.688449     8A    -10.634622     9A     -1.479588
      10A     -1.385862    11A     -1.384753    12A     -1.262959
      13A     -1.130228    14A     -0.876324    15A     -0.843312
      16A     -0.769019    17A     -0.705857    18A     -0.703677
      19A     -0.673038    20A     -0.657099    21A     -0.600036
      22A     -0.583276    23A     -0.581034    24A     -0.570627
      25A     -0.546204    26A     -0.538626    27A     -0.520628
      28A     -0.518951    29A     -0.502855    30A     -0.477294
      31A     -0.467282    32A     -0.371186    33A     -0.345632

  @DF-RKS Final Energy:  -567.20006846530362

   => Energetics <=

    Nuclear Repulsion Energy =            445.2572578543642976
    One-Electron Energy =               -1666.8479347377613067
    Two-Electron Energy =                 686.4221479068473855
    DFT Exchange-Correlation Energy =     -32.0315394887540279
    Empirical Dispersion Energy =           0.0000000000000000
    VV10 Nonlocal Energy =                  0.0000000000000000
    Total Energy =                       -567.2000684653036160

  Dipole Moment: [D]
     X:     3.5746      Y:     3.1889      Z:    -2.0774     Total:     5.2213

    Molecular point group: c1
  Basis Set: 6-311++G(D,P)
    Blend: 6-311++G(D,P)
  Basis Set: (6-311++G(D,P) AUX)
    Blend: AUG-CC-PVTZ-JKFIT

  -Total Gradient:
     Atom            X                  Y                   Z
    ------   -----------------  -----------------  -----------------
       1        0.000026714585    -0.000055742655     0.000050151875
       2        0.000042777770     0.000023763108    -0.000013211294
       3       -0.000099740068     0.000010962289    -0.000044672782
       4       -0.000161657133     0.000107953178     0.000053189080
       5       -0.000003617654     0.000013691815    -0.000021960984
       6       -0.000006185228     0.000008510817     0.000021248146
       7        0.000023427575     0.000013270179    -0.000004922231
       8        0.000000320405     0.000032638008    -0.000003780859
       9        0.000015231496     0.000076276096    -0.000054543242
      10       -0.000003105061    -0.000062413740    -0.000038855657
      11        0.000265470061     0.000100977422    -0.000009499378
      12        0.000010328794    -0.000088315631     0.000026635452
      13        0.000023127290     0.000034480886    -0.000018551357

  **** Optimization is complete! (in 23 steps) ****
    Final optimized geometry and variables:
    Molecular point group: c1

    Geometry (in Angstrom), charge = 0, multiplicity = 1:

    C            0.006693528323    -0.279637224262    -0.800657894312
    O           -1.082449924363    -0.421790259210    -1.488009949304
    F            1.062802919574    -0.023956486458     1.295002973653
    F           -1.097540296949     0.080594509799     1.276019061556
    H            0.977178856231     2.910158820172    -1.818849957232
    C            1.210429673681     1.867745006711    -1.614497179894
    H            1.400921277045     1.327364042081    -2.544543421282
    H            2.068481200267     1.802670198536    -0.948289164455
    O            0.082405440961     1.298677551225    -0.934784006658
    H           -0.815824867107     0.946670755852    -1.521709556490
    C           -0.049907967661    -0.505361914600     0.713694707408
    F           -0.104426112788    -1.814354521104     0.969130055961
    H            0.966199620589    -0.661243005328    -1.191145669509

*** Psi4 exiting successfully. Buy a developer a beer!
