                               Psi4 1.2.1 release

  ==> Input File <==

--------------------------------------------------------------------------
molecule{
0 1
C   0.2152682544   0.7725305061   0.9750347684
O   0.2530095392   0.9393588143  -0.6297009162
C  -1.8669628129   1.5226835075  -0.3664671325
H  -2.5478588231   2.3596221130  -0.2545028257
N  -0.7213562301   1.8185938224  -0.9197903508
O  -0.8248833857   1.2867374851   1.4202951466
N   1.2024917238   0.1572267237   1.4336354725
C  -0.2476242837   3.1926266650  -0.9983729581
H   0.5233995263   3.2399442160  -1.7610766980
H  -1.0752549240   3.8441556510  -1.2662029336
H   0.1669617715   3.4739535944  -0.0291965296
C   2.2683136754  -0.2874814007   0.5569374105
H   1.9259853294  -1.0394673280  -0.1587479644
H   2.7074328381   0.5337119040  -0.0146453256
H   3.0502495197  -0.7352907491   1.1663256452
C  -2.4291945040   0.1521414552  -0.3186269626
H  -2.9793592202   0.0258685037   0.6101873341
H  -3.1248861693   0.0383941563  -1.1539833381
H  -1.6484397850  -0.5980842800  -0.3874453519
}

set{
   basis 6-31+G(d)
   freeze_core True
   opt_type ts
}

optimize('mp2')
--------------------------------------------------------------------------

    Molecular point group: c1
  Charge       = 0
  Multiplicity = 1
  Basis Set: 6-31+G(D)
    Blend: 6-31+G(D)
  Basis Set: (6-31+G(D) AUX)
    Blend: HEAVY-AUG-CC-PVDZ-JKFIT
  @DF-RHF Final Energy:  -453.65529466624093
    Total Energy =                       -453.6552946662409340
  Basis Set: (6-31+G(D) AUX)
    Blend: HEAVY-AUG-CC-PVDZ-RI
    Molecular point group: c1
  Basis Set: 6-31+G(D)
    Blend: 6-31+G(D)
  Basis Set: (6-31+G(D) AUX)
    Blend: HEAVY-AUG-CC-PVDZ-JKFIT
  Basis Set: (6-31+G(D) AUX)
    Blend: HEAVY-AUG-CC-PVDZ-JKFIT
	 Reference Energy          =    -453.6552946662409340 [Eh]
	 Singles Energy            =      -0.0000000000000000 [Eh]
	 Same-Spin Energy          =      -0.3611580789062596 [Eh]
	 Opposite-Spin Energy      =      -0.9991727189456967 [Eh]
	 Correlation Energy        =      -1.3603307978519563 [Eh]
	 Total Energy              =    -455.0156254640928637 [Eh]
	 SCS Total Energy          =    -454.9746879552778296 [Eh]
  @DF-RHF Final Energy:  -453.65031857725717
    Total Energy =                       -453.6503185772571669
  @DF-RHF Final Energy:  -453.64693406758477
    Total Energy =                       -453.6469340675847661
  @DF-RHF Final Energy:  -453.64697966796211
    Total Energy =                       -453.6469796679621140
  @DF-RHF Final Energy:  -453.64280291316101
    Total Energy =                       -453.6428029131609492
  @DF-RHF Final Energy:  -453.64613812728385
    Total Energy =                       -453.6461381272838480
  @DF-RHF Final Energy:  -453.64918689592645
    Total Energy =                       -453.6491868959265048
  @DF-RHF Final Energy:  -453.64868262632132
    Total Energy =                       -453.6486826263212606
  @DF-RHF Final Energy:  -453.64523446842821
    Total Energy =                       -453.6452344684282707
  @DF-RHF Final Energy:  -453.64769558642433
    Total Energy =                       -453.6476955864243337
  @DF-RHF Final Energy:  -453.64894849883370
    Total Energy =                       -453.6489484988336471
  @DF-RHF Final Energy:  -453.64801365135946
    Total Energy =                       -453.6480136513594061
  @DF-RHF Final Energy:  -453.64455179528937
    Total Energy =                       -453.6445517952893169
  @DF-RHF Final Energy:  -453.64818579645981
    Total Energy =                       -453.6481857964598703
  @DF-RHF Final Energy:  -453.64832513181119
    Total Energy =                       -453.6483251318111343
  @DF-RHF Final Energy:  -453.64310723807336
    Total Energy =                       -453.6431072380732985
  @DF-RHF Final Energy:  -453.64755308525321
    Total Energy =                       -453.6475530852532074
  @DF-RHF Final Energy:  -453.64747634157408
    Total Energy =                       -453.6474763415740199
  @DF-RHF Final Energy:  -453.64808894459304
    Total Energy =                       -453.6480889445930416
  @DF-RHF Final Energy:  -453.64805542182523
    Total Energy =                       -453.6480554218252337
  @DF-RHF Final Energy:  -453.64744602233128
    Total Energy =                       -453.6474460223312235
  @DF-RHF Final Energy:  -453.64789619555506
    Total Energy =                       -453.6478961955550631
  @DF-RHF Final Energy:  -453.64801342632461
    Total Energy =                       -453.6480134263246100
  @DF-RHF Final Energy:  -453.64799019599621
    Total Energy =                       -453.6479901959962717
  Charge       = 0
  Multiplicity = 1
  Basis Set: 6-31+G(D)
    Blend: 6-31+G(D)
  Basis Set: (6-31+G(D) AUX)
    Blend: HEAVY-AUG-CC-PVDZ-JKFIT

    Orbital Energies [Eh]
    ---------------------

    Doubly Occupied:

       1A    -20.614834     2A    -20.562525     3A    -15.683936
       4A    -15.529292     5A    -11.385515     6A    -11.379302
       7A    -11.290835     8A    -11.263048     9A    -11.232182
      10A     -1.470559    11A     -1.365438    12A     -1.219535
      13A     -1.170842    14A     -1.070809    15A     -0.968269
      16A     -0.920232    17A     -0.835516    18A     -0.756272
      19A     -0.720453    20A     -0.702954    21A     -0.675996
      22A     -0.633692    23A     -0.624696    24A     -0.610556
      25A     -0.589393    26A     -0.582024    27A     -0.579668
      28A     -0.564649    29A     -0.540596    30A     -0.534490
      31A     -0.500942    32A     -0.466297    33A     -0.441382
      34A     -0.370084    35A     -0.351469

  @DF-RHF Final Energy:  -453.64797916629914

   => Energetics <=

    Nuclear Repulsion Energy =            486.8711902473439181
    One-Electron Energy =               -1584.6217774577924047
    Two-Electron Energy =                 644.1026080441492923
    Total Energy =                       -453.6479791662991374

  Dipole Moment: [D]
     X:    -3.8159      Y:     2.5907      Z:    -4.3805     Total:     6.3610

  Basis Set: (6-31+G(D) AUX)
    Blend: HEAVY-AUG-CC-PVDZ-RI
    Molecular point group: c1
  Basis Set: 6-31+G(D)
    Blend: 6-31+G(D)
  Basis Set: (6-31+G(D) AUX)
    Blend: HEAVY-AUG-CC-PVDZ-JKFIT
  Basis Set: (6-31+G(D) AUX)
    Blend: HEAVY-AUG-CC-PVDZ-JKFIT
	 Reference Energy          =    -453.6479791662991374 [Eh]
	 Singles Energy            =      -0.0000000000000000 [Eh]
	 Same-Spin Energy          =      -0.3634459245571552 [Eh]
	 Opposite-Spin Energy      =      -1.0067455451674900 [Eh]
	 Correlation Energy        =      -1.3701914697246451 [Eh]
	 Total Energy              =    -455.0181706360237968 [Eh]

	 ================> DF-SCS-MP2 Energies <==================
	-----------------------------------------------------------
	 SCS Same-Spin Scale       =       0.3333333333333333 [-]
	 SCS Opposite-Spin Scale   =       1.2000000000000000 [-]
	 SCS Same-Spin Energy      =      -0.1211486415190517 [Eh]
	 SCS Opposite-Spin Energy  =      -1.2080946542009880 [Eh]
	 SCS Correlation Energy    =      -1.3292432957200397 [Eh]
	 SCS Total Energy          =    -454.9772224620191992 [Eh]
	-----------------------------------------------------------

  -Total Gradient:
     Atom            X                  Y                   Z
    ------   -----------------  -----------------  -----------------
       1        0.000021895725    -0.000002887246    -0.000413322884
       2        0.000050308402    -0.000064971190     0.000258255373
       3        0.000001526091     0.000002429101    -0.000007702340
       4       -0.000012298145     0.000002178333    -0.000022115948
       5       -0.000075673991     0.000078278453    -0.000023436834
       6       -0.000052043327     0.000016122621     0.000161657543
       7        0.000079454246    -0.000050575263     0.000117774840
       8        0.000020994663     0.000028508133    -0.000030920398
       9       -0.000008218075    -0.000006846723    -0.000011281403
      10       -0.000008813778    -0.000001814814     0.000006403581
      11        0.000006969149    -0.000005438314    -0.000000606887
      12       -0.000013507628     0.000013011345    -0.000017375812
      13        0.000017140747     0.000010295084     0.000010607022
      14       -0.000002920975    -0.000021834568     0.000007189081
      15       -0.000012927702     0.000010967871    -0.000013910249
      16       -0.000009509723    -0.000000972013    -0.000022940482
      17       -0.000003212627     0.000002049052     0.000002564154
      18        0.000001296320    -0.000001024897    -0.000006423713
      19       -0.000000459372    -0.000007474966     0.000005585351

  **** Optimization is complete! (in 25 steps) ****
    Final optimized geometry and variables:
    Molecular point group: c1

    Geometry (in Angstrom), charge = 0, multiplicity = 1:

    C            0.446994189693    -0.301416585888     0.868835520532
    O            0.481159765750    -0.152990009249    -0.811505940796
    C           -1.624935032683     0.459307243726    -0.425158186291
    H           -2.299719283682     1.302565486172    -0.277015439688
    N           -0.503919106926     0.757595772629    -1.059964782334
    O           -0.617665798857     0.222440005482     1.300746385918
    N            1.449617743233    -0.906307516934     1.351698897941
    C           -0.005531387103     2.130881666623    -1.119508271191
    H            0.730525530364     2.180695122776    -1.921323561544
    H           -0.839712899481     2.801079679522    -1.335368523612
    H            0.460397718036     2.382967878521    -0.161367851959
    C            2.528484366012    -1.345613501225     0.469689828932
    H            2.186156650123    -2.100032731256    -0.248087817230
    H            2.963674625835    -0.511922547079    -0.092785513880
    H            3.305937044249    -1.790178599965     1.093798686939
    C           -2.214545342872    -0.907969204230    -0.429676951853
    H           -2.780557539155    -1.059440647323     0.491591591761
    H           -2.903481863599    -0.987997809925    -1.280727690315
    H           -1.443255348441    -1.672701370835    -0.516194052189

*** Psi4 exiting successfully. Buy a developer a beer!
