                               Psi4 1.2.1 release

  ==> Input File <==

--------------------------------------------------------------------------

molecule {
0 1
 C   -0.096702550851   -0.564746944292   -0.837670917229
 O   -1.113975479868   -0.642690286614   -1.456988515459
 F    1.044544036893   -0.028792226470    1.199284055263
 F   -1.111870774580    0.067866701877    1.242960287961
 H    1.291124819205    3.033818009938   -1.958542648154
 C    1.295461311322    1.985483965440   -1.653505250016
 H    1.344942777455    1.350532369111   -2.544850883011
 H    2.173050713097    1.803469426262   -1.034629052068
 O    0.165737875511    1.676545067036   -0.854119608514
 H   -0.643228830141    1.833372853070   -1.352913610879
 C   -0.077692668352   -0.554539961559    0.700715089736
 F   -0.111724725431   -1.846861667232    1.067830247746
 H    0.910267736886   -0.664472870127   -1.279432782561
}

set{
  basis 6-311++G(d,p)
  freeze_core True
  cubeprop_tasks ['ESP']
}

set_num_threads(32)
E, wfn = energy('m06-2x', return_wfn=True)
cubeprop(wfn)
--------------------------------------------------------------------------

    Molecular point group: c1

    Geometry (in Angstrom), charge = 0, multiplicity = 1:

       Center              X                  Y                   Z               Mass
    ------------   -----------------  -----------------  -----------------  -----------------
         C           -0.096702550851    -0.564746944292    -0.837670917229    12.000000000000
         O           -1.113975479868    -0.642690286614    -1.456988515459    15.994914619560
         F            1.044544036893    -0.028792226470     1.199284055263    18.998403224000
         F           -1.111870774580     0.067866701877     1.242960287961    18.998403224000
         H            1.291124819205     3.033818009938    -1.958542648154     1.007825032070
         C            1.295461311322     1.985483965440    -1.653505250016    12.000000000000
         H            1.344942777455     1.350532369111    -2.544850883011     1.007825032070
         H            2.173050713097     1.803469426262    -1.034629052068     1.007825032070
         O            0.165737875511     1.676545067036    -0.854119608514    15.994914619560
         H           -0.643228830141     1.833372853070    -1.352913610879     1.007825032070
         C           -0.077692668352    -0.554539961559     0.700715089736    12.000000000000
         F           -0.111724725431    -1.846861667232     1.067830247746    18.998403224000
         H            0.910267736886    -0.664472870127    -1.279432782561     1.007825032070

  Charge       = 0
  Multiplicity = 1
  Basis Set: 6-311++G(D,P)
    Blend: 6-311++G(D,P)
  Basis Set: (6-311++G(D,P) AUX)
    Blend: AUG-CC-PVTZ-JKFIT

    Orbital Energies [Eh]
    ---------------------

    Doubly Occupied:

       1A    -25.287166     2A    -25.286478     3A    -25.284806
       4A    -19.660401     5A    -19.653505     6A    -10.805888
       7A    -10.671821     8A    -10.606227     9A     -1.481079
      10A     -1.388438    11A     -1.385051    12A     -1.215511
      13A     -1.181679    14A     -0.864771    15A     -0.809243
      16A     -0.761968    17A     -0.707163    18A     -0.704392
      19A     -0.655472    20A     -0.622062    21A     -0.586313
      22A     -0.584375    23A     -0.567991    24A     -0.560780
      25A     -0.545324    26A     -0.537021    27A     -0.529808
      28A     -0.521645    29A     -0.517959    30A     -0.486467
      31A     -0.442416    32A     -0.384221    33A     -0.364131

  @DF-RKS Final Energy:  -567.24513240856049

   => Energetics <=

    Nuclear Repulsion Energy =            431.2026177034449006
    One-Electron Energy =               -1639.1135993791924648
    Two-Electron Energy =                 672.6834327850664295
    DFT Exchange-Correlation Energy =     -32.0175835178794159
    Empirical Dispersion Energy =           0.0000000000000000
    VV10 Nonlocal Energy =                  0.0000000000000000
    Total Energy =                       -567.2451324085604938

  Dipole Moment: [D]
     X:     2.2115      Y:     1.9648      Z:    -2.3962     Total:     3.8070

  Basis Set: 6-311++G(D,P)
    Blend: 6-311++G(D,P)
*** Psi4 exiting successfully. Buy a developer a beer!
