                               Psi4 1.2.1 release

  ==> Input File <==

--------------------------------------------------------------------------
molecule{
0 1
C 0.0243272819 -0.1669752439 -1.4576325328

O -1.0648161708 -0.3091282789 -2.1449845878

Br 1.5914289211 0.3097821857 0.9049835893

Br -1.5829151645 0.4745967321 0.8890379982

H 0.9771788562 2.9101588202 -1.8188499572

C 1.2104296737 1.8677450067 -1.6144971799

H 1.4009212770 1.3273640421 -2.5445434213

H 2.0684812003 1.8026701985 -0.9482891645

O 0.0824054410 1.2986775512 -0.9347840067

H -0.8158248671 0.9466707559 -1.5217095565

C -0.0322742141 -0.3926999343 0.0567200689

Br -0.1124097396 -2.3167714549 0.4321812267

H 0.9838333741 -0.5485810250 -1.8481203080
}

basis {
  assign 6-311ppgss
  assign Br def2-tzvpp
}

set{
   freeze_core True
   opt_type ts
}

set_num_threads(32)
optimize('m06-2x')
--------------------------------------------------------------------------

    Molecular point group: c1
  Charge       = 0
  Multiplicity = 1
  Basis Set: ANONYMOUS49BEEDDC
    Blend: 6-311PPGSS + DEF2-TZVPP
  Basis Set: (ANONYMOUS49BEEDDC AUX)
    Blend: AUG-CC-PVTZ-JKFIT + DEF2-TZVPP-JKFIT
  @DF-RKS Final Energy: -7990.13992837919886
    Total Energy =                      -7990.1399283791988637
    Molecular point group: c1
  Basis Set: ANONYMOUS49BEEDDC
    Blend: 6-311PPGSS + DEF2-TZVPP
  Basis Set: (ANONYMOUS49BEEDDC AUX)
    Blend: AUG-CC-PVTZ-JKFIT + DEF2-TZVPP-JKFIT
  Basis Set: ANONYMOUS49BEEDDC
    Blend: 6-311PPGSS + DEF2-TZVPP
  Basis Set: (ANONYMOUS49BEEDDC AUX)
    Blend: AUG-CC-PVTZ-JKFIT + DEF2-TZVPP-JKFIT
  @DF-RKS Final Energy: -7990.19393974082686
    Total Energy =                      -7990.1939397408268633
  Basis Set: ANONYMOUS49BEEDDC
    Blend: 6-311PPGSS + DEF2-TZVPP
  Basis Set: (ANONYMOUS49BEEDDC AUX)
    Blend: AUG-CC-PVTZ-JKFIT + DEF2-TZVPP-JKFIT
  Basis Set: ANONYMOUS49BEEDDC
    Blend: 6-311PPGSS + DEF2-TZVPP
  @DF-RKS Final Energy: -7990.21717810197515
    Total Energy =                      -7990.2171781019751506
  @DF-RKS Final Energy: -7990.22944554953938
    Total Energy =                      -7990.2294455495393777
  @DF-RKS Final Energy: -7990.23816756123506
    Total Energy =                      -7990.2381675612350591
  @DF-RKS Final Energy: -7990.23073393746017
    Total Energy =                      -7990.2307339374601725
  @DF-RKS Final Energy: -7990.22848748695651
    Total Energy =                      -7990.2284874869565101
  @DF-RKS Final Energy: -7990.22917337023591
    Total Energy =                      -7990.2291733702359124
  @DF-RKS Final Energy: -7990.23131506884602
    Total Energy =                      -7990.2313150688460155
  @DF-RKS Final Energy: -7990.23182521522449
    Total Energy =                      -7990.2318252152244895
  @DF-RKS Final Energy: -7990.23175620911843
    Total Energy =                      -7990.2317562091184300
  @DF-RKS Final Energy: -7990.23233086634355
    Total Energy =                      -7990.2323308663435455
  @DF-RKS Final Energy: -7990.23413325399633
    Total Energy =                      -7990.2341332539972427
  @DF-RKS Final Energy: -7990.23101718932594
    Total Energy =                      -7990.2310171893259394
  @DF-RKS Final Energy: -7990.23305018329029
    Total Energy =                      -7990.2330501832902883
  @DF-RKS Final Energy: -7990.23340648007979
    Total Energy =                      -7990.2334064800797933
  @DF-RKS Final Energy: -7990.23353551025139
    Total Energy =                      -7990.2335355102513859
  @DF-RKS Final Energy: -7990.23362429094232
    Total Energy =                      -7990.2336242909423163
  @DF-RKS Final Energy: -7990.23366394371260
    Total Energy =                      -7990.2336639437125996
  Basis Set: (ANONYMOUS49BEEDDC AUX)
    Blend: AUG-CC-PVTZ-JKFIT + DEF2-TZVPP-JKFIT
  Basis Set: ANONYMOUS49BEEDDC
    Blend: 6-311PPGSS + DEF2-TZVPP
  Basis Set: (ANONYMOUS49BEEDDC AUX)
    Blend: AUG-CC-PVTZ-JKFIT + DEF2-TZVPP-JKFIT
  @DF-RKS Final Energy: -7990.23366827958034
    Total Energy =                      -7990.2336682795803426
  Basis Set: ANONYMOUS49BEEDDC
    Blend: 6-311PPGSS + DEF2-TZVPP
  Basis Set: (ANONYMOUS49BEEDDC AUX)
    Blend: AUG-CC-PVTZ-JKFIT + DEF2-TZVPP-JKFIT
  Charge       = 0
  Multiplicity = 1
  Basis Set: ANONYMOUS49BEEDDC
    Blend: 6-311PPGSS + DEF2-TZVPP
  Basis Set: (ANONYMOUS49BEEDDC AUX)
    Blend: AUG-CC-PVTZ-JKFIT + DEF2-TZVPP-JKFIT

    Orbital Energies [Eh]
    ---------------------

    Doubly Occupied:

       1A   -485.397129     2A   -485.392839     3A   -485.389381
       4A    -63.382602     5A    -63.378274     6A    -63.374788
       7A    -57.201043     8A    -57.198390     9A    -57.198327
      10A    -57.196790    11A    -57.194019    12A    -57.193953
      13A    -57.193335    14A    -57.190516    15A    -57.190478
      16A    -19.713017    17A    -19.596576    18A    -10.711927
      19A    -10.689609    20A    -10.626609    21A     -9.048003
      22A     -9.043709    23A     -9.040211    24A     -6.872417
      25A     -6.868408    26A     -6.865008    27A     -6.862722
      28A     -6.862509    29A     -6.858254    30A     -6.858027
      31A     -6.854680    32A     -6.854543    33A     -2.906240
      34A     -2.902840    35A     -2.902614    36A     -2.902235
      37A     -2.898862    38A     -2.898658    39A     -2.898425
      40A     -2.895158    41A     -2.895020    42A     -2.893584
      43A     -2.893576    44A     -2.888980    45A     -2.888972
      46A     -2.885408    47A     -2.885398    48A     -1.255738
      49A     -1.127702    50A     -0.984396    51A     -0.874590
      52A     -0.872149    53A     -0.841465    54A     -0.791625
      55A     -0.673616    56A     -0.653528    57A     -0.601461
      58A     -0.580095    59A     -0.541131    60A     -0.524546
      61A     -0.504535    62A     -0.478354    63A     -0.470793
      64A     -0.461351    65A     -0.387461    66A     -0.385334
      67A     -0.379776    68A     -0.366276    69A     -0.352535
      70A     -0.348349    71A     -0.340000    72A     -0.336037

  @DF-RKS Final Energy: -7990.23366873148007

   => Energetics <=

    Nuclear Repulsion Energy =           1469.1681785925525219
    One-Electron Energy =              -14043.8624381965128123
    Two-Electron Energy =                4730.5012258494962225
    DFT Exchange-Correlation Energy =    -146.0406349770157703
    Empirical Dispersion Energy =           0.0000000000000000
    VV10 Nonlocal Energy =                  0.0000000000000000
    Total Energy =                      -7990.2336687314800656

  Dipole Moment: [D]
     X:     3.0221      Y:     2.8249      Z:    -0.9814     Total:     4.2517

    Molecular point group: c1
  Basis Set: ANONYMOUS49BEEDDC
    Blend: 6-311PPGSS + DEF2-TZVPP
  Basis Set: (ANONYMOUS49BEEDDC AUX)
    Blend: AUG-CC-PVTZ-JKFIT + DEF2-TZVPP-JKFIT

  -Total Gradient:
     Atom            X                  Y                   Z
    ------   -----------------  -----------------  -----------------
       1        0.000061627878     0.000170811651    -0.000137925171
       2       -0.000042062617     0.000050776636    -0.000181507080
       3       -0.000048667888    -0.000035479182    -0.000161194812
       4        0.000001375711     0.000035597377    -0.000143786790
       5        0.000026633720     0.000052078861    -0.000086888547
       6        0.000025266321     0.000050557735    -0.000138363683
       7        0.000006683698     0.000055498705    -0.000104850554
       8        0.000009332337     0.000028318418    -0.000100473308
       9       -0.000006320351    -0.000090532269    -0.000097929457
      10        0.000050440863     0.000064156791    -0.000110693058
      11        0.000062737364     0.000008472772    -0.000128812953
      12       -0.000006325513     0.000061224165    -0.000211696040
      13       -0.000000507595     0.000045011091    -0.000175935169

  **** Optimization is complete! (in 21 steps) ****
    Final optimized geometry and variables:
    Molecular point group: c1

    Geometry (in Angstrom), charge = 0, multiplicity = 1:

    C            0.114283081192     0.298323411498    -1.564720926966
    O           -0.933681714310     0.226443626216    -2.322251970436
    BR           1.580252119363     0.458193703415     0.882876240334
    BR          -1.600513027011     0.641580279657     0.721348752976
    H            1.102963053972     3.543527418724    -2.364951299416
    C            1.328503584354     2.488956786040    -2.221025454663
    H            1.512594980897     2.004222447527    -3.183073665180
    H            2.188708050801     2.377883092360    -1.563589714819
    O            0.196626601110     1.892005232910    -1.574124173045
    H           -0.682114071540     1.574898707014    -2.216542845479
    C           -0.017197409137    -0.116679636361    -0.076066820895
    BR          -0.113721455507    -2.055962672289    -0.083413764549
    H            1.092768890340    -0.045313121271    -1.939602914483

*** Psi4 exiting successfully. Buy a developer a beer!
