                               Psi4 1.2.1 release

  ==> Input File <==

--------------------------------------------------------------------------
molecule{
0 1
C       -0.6101067389     -1.0420929117     -0.5574034208
O       -1.7819647030     -0.9615987922     -0.7542289137
F        1.3341825623     -0.2209294838      0.5363095501
F       -0.5431620537      0.7377519586      1.0301125198
C        0.0230537792     -0.4171594251      0.7001078690
F       -0.1292876837     -1.2633457816      1.7287523978
H        0.0957677128     -1.6019739962     -1.1901173596
}

set{
   basis 6-311++G(d,p)
   freeze_core True
   cubeprop_tasks ['ESP']
}

set_num_threads(32)
e, wfn = energy('m06-2x', return_wfn=True)
cubeprop(wfn)
--------------------------------------------------------------------------

    Molecular point group: c1

    Geometry (in Angstrom), charge = 0, multiplicity = 1:

       Center              X                  Y                   Z               Mass
    ------------   -----------------  -----------------  -----------------  -----------------
         C           -0.376646499970    -0.545256199810    -1.078355642935    12.000000000000
         O           -1.548504464070    -0.464762080310    -1.275181135835    15.994914619560
         F            1.567642801230     0.275907228090     0.015357327965    18.998403224000
         F           -0.309701814770     1.234588670490     0.509160297665    18.998403224000
         C            0.256514018130     0.079677286790     0.179155646865    12.000000000000
         F            0.104172555230    -0.766509069710     1.207800175665    18.998403224000
         H            0.329227951730    -1.105137284310    -1.711069581735     1.007825032070

  Charge       = 0
  Multiplicity = 1
  Basis Set: 6-311++G(D,P)
    Blend: 6-311++G(D,P)
  Basis Set: (6-311++G(D,P) AUX)
    Blend: AUG-CC-PVTZ-JKFIT

    Orbital Energies [Eh]
    ---------------------

    Doubly Occupied:

       1A    -25.306632     2A    -25.302912     3A    -25.302287
       4A    -19.690370     5A    -10.826016     6A    -10.688986
       7A     -1.499102     8A     -1.406241     9A     -1.402334
      10A     -1.243061    11A     -0.883588    12A     -0.779230
      13A     -0.725026    14A     -0.721375    15A     -0.675659
      16A     -0.606142    17A     -0.601412    18A     -0.587958
      19A     -0.562611    20A     -0.556427    21A     -0.540895
      22A     -0.538611    23A     -0.514208    24A     -0.390124

  @DF-RKS Final Energy:  -451.53301641790239

   => Energetics <=

    Nuclear Repulsion Energy =            253.1778819575835939
    One-Electron Energy =               -1126.4259036245514380
    Two-Electron Energy =                 446.2541173050904604
    DFT Exchange-Correlation Energy =     -24.5391120560250471
    Empirical Dispersion Energy =           0.0000000000000000
    VV10 Nonlocal Energy =                  0.0000000000000000
    Total Energy =                       -451.5330164179023882

  Dipole Moment: [D]
     X:     1.3990      Y:    -0.8479      Z:    -1.2172     Total:     2.0391

  Basis Set: 6-311++G(D,P)
    Blend: 6-311++G(D,P)
*** Psi4 exiting successfully. Buy a developer a beer!
