                         Program Version 4.1.1  - RELEASE  -
|  1> !B3LYP SV(P) NEB-CI
|  2>
|  3> %neb
|  4>   NEB_End_XYZFile "prod.xyz"
|  5>   Nimages 20
|  6> end
|  7>
|  8> *xyz 0 1
|  9>   C   -0.09747096069022      0.60995763828155     -0.12271704977891
| 10>   O   -1.25576587315890      0.52022877033435     -0.18341361402541
| 11>   O   1.06066200131021      0.70037902104859     -0.06203040435826
| 12>   H   0.37914428587726     -2.42376368504301      0.48701267968197
| 13>   H   -0.38288445333835     -2.40076274462148      0.43107638848060
| 14> *
| 15>
| 16>                          ****END OF INPUT****

CARTESIAN COORDINATES (ANGSTROEM)
---------------------------------
  C     -0.097471    0.609958   -0.122717
  O     -1.255766    0.520229   -0.183414
  O      1.060662    0.700379   -0.062030
  H      0.379144   -2.423764    0.487013
  H     -0.382884   -2.400763    0.431076

 Total Charge           Charge          ....    0
 Multiplicity           Mult            ....    1
 Number of Electrons    NEL             ....   24
 Basis Dimension        Dim             ....   46

ORBITAL ENERGIES
----------------

  NO   OCC          E(Eh)            E(eV)
   0   2.0000     -19.214192      -522.8448
   1   2.0000     -19.214120      -522.8428
   2   2.0000     -10.375786      -282.3395
   3   2.0000      -1.146637       -31.2016
   4   2.0000      -1.107832       -30.1456
   5   2.0000      -0.550538       -14.9809
   6   2.0000      -0.516355       -14.0507
   7   2.0000      -0.515564       -14.0292
   8   2.0000      -0.513702       -13.9785
   9   2.0000      -0.431034       -11.7290
  10   2.0000      -0.369897       -10.0654
  11   2.0000      -0.369668       -10.0592
  12   0.0000       0.034098         0.9279
  13   0.0000       0.034537         0.9398
  14   0.0000       0.062942         1.7127
  15   0.0000       0.068809         1.8724
  16   0.0000       0.327475         8.9111

MULLIKEN ATOMIC CHARGES
-----------------------
   0 C :    0.264252
   1 O :   -0.133354
   2 O :   -0.132193
   3 H :   -0.000602
   4 H :    0.001897
Sum of atomic charges:    0.0000000

LOEWDIN ATOMIC CHARGES
----------------------
   0 C :    0.134089
   1 O :   -0.067456
   2 O :   -0.066839
   3 H :   -0.000187
   4 H :    0.000393

  Mayer bond orders larger than 0.1
B(  0-C ,  1-O ) :   2.1667 B(  0-C ,  2-O ) :   2.1704 B(  1-O ,  2-O ) :   0.2688
B(  3-H ,  4-H ) :   0.9918

FINAL SINGLE POINT ENERGY      -189.525059479936
                             ****ORCA TERMINATED NORMALLY****
TOTAL RUN TIME: 0 days 0 hours 50 minutes 31 seconds 715 msec
