                               Psi4 1.2.1 release

  ==> Input File <==

--------------------------------------------------------------------------
molecule{
0 1
C     -0.108048   -0.645236    0.050654
O     -1.120282   -0.619961   -0.731157
O      0.225504    0.911684   -0.083940
H     -0.718435    0.657922   -0.701050
H      1.355440    2.315564   -1.044552
C      1.408542    1.254452   -0.810960
H      1.473575    0.670673   -1.733349
H      2.273373    1.062369   -0.177825
Cl    -0.343774   -0.817235    1.371281
H      0.812505   -1.184592   -0.204078
}

set{
   basis 6-311++G(d,p)
   freeze_core True
   opt_type ts
}

set_num_threads(16)
optimize('m06-2x')
--------------------------------------------------------------------------

    Molecular point group: c1
  Charge       = 0
  Multiplicity = 1
  Basis Set: 6-311++G(D,P)
    Blend: 6-311++G(D,P)
  Basis Set: (6-311++G(D,P) AUX)
    Blend: AUG-CC-PVTZ-JKFIT
  @DF-RKS Final Energy:  -689.59821351805738
    Total Energy =                       -689.5982135180573778
    Molecular point group: c1
  Basis Set: 6-311++G(D,P)
    Blend: 6-311++G(D,P)
  Basis Set: (6-311++G(D,P) AUX)
    Blend: AUG-CC-PVTZ-JKFIT
  Basis Set: 6-311++G(D,P)
    Blend: 6-311++G(D,P)
  Basis Set: (6-311++G(D,P) AUX)
    Blend: AUG-CC-PVTZ-JKFIT
  @DF-RKS Final Energy:  -689.72061610628464
    Total Energy =                       -689.7206161062846377
  Basis Set: 6-311++G(D,P)
    Blend: 6-311++G(D,P)
  Basis Set: (6-311++G(D,P) AUX)
    Blend: AUG-CC-PVTZ-JKFIT
  Basis Set: 6-311++G(D,P)
    Blend: 6-311++G(D,P)
  @DF-RKS Final Energy:  -689.74290881314209
    Total Energy =                       -689.7429088131420940
  @DF-RKS Final Energy:  -689.75024630159737
    Total Energy =                       -689.7502463015973717
  @DF-RKS Final Energy:  -689.75482560854198
    Total Energy =                       -689.7548256085419780
  @DF-RKS Final Energy:  -689.75835034488841
    Total Energy =                       -689.7583503448884130
  @DF-RKS Final Energy:  -689.75542692698468
    Total Energy =                       -689.7554269269846827
  @DF-RKS Final Energy:  -689.76340547855091
    Total Energy =                       -689.7634054785509079
  @DF-RKS Final Energy:  -689.75583280885871
    Total Energy =                       -689.7558328088587132
  @DF-RKS Final Energy:  -689.75564707470107
    Total Energy =                       -689.7556470747010735
  @DF-RKS Final Energy:  -689.75668188182408
    Total Energy =                       -689.7566818818240790
  @DF-RKS Final Energy:  -689.75700944257528
    Total Energy =                       -689.7570094425752814
  @DF-RKS Final Energy:  -689.75723649732822
    Total Energy =                       -689.7572364973282220
  @DF-RKS Final Energy:  -689.75735754564198
    Total Energy =                       -689.7573575456419803
  @DF-RKS Final Energy:  -689.75738569558393
    Total Energy =                       -689.7573856955839346
  @DF-RKS Final Energy:  -689.75747747721334
    Total Energy =                       -689.7574774772133424
  @DF-RKS Final Energy:  -689.75749733170960
    Total Energy =                       -689.7574973317096010
  @DF-RKS Final Energy:  -689.75751281836892
    Total Energy =                       -689.7575128183689230
  @DF-RKS Final Energy:  -689.75752270665703
    Total Energy =                       -689.7575227066570278
  @DF-RKS Final Energy:  -689.75752556877933
    Total Energy =                       -689.7575255687793288
  @DF-RKS Final Energy:  -689.75752810600557
    Total Energy =                       -689.7575281060055659
  @DF-RKS Final Energy:  -689.75753241796872
    Total Energy =                       -689.7575324179687186
  @DF-RKS Final Energy:  -689.75753666853541
    Total Energy =                       -689.7575366685354084
  @DF-RKS Final Energy:  -689.75754070697690
    Total Energy =                       -689.7575407069768971
  @DF-RKS Final Energy:  -689.75754568188404
    Total Energy =                       -689.7575456818840394
  @DF-RKS Final Energy:  -689.75754921792861
    Total Energy =                       -689.7575492179286130
  @DF-RKS Final Energy:  -689.75755236662292
    Total Energy =                       -689.7575523666229174
  @DF-RKS Final Energy:  -689.75755723151667
    Total Energy =                       -689.7575572315166710
  @DF-RKS Final Energy:  -689.75756162638868
    Total Energy =                       -689.7575616263886786
  @DF-RKS Final Energy:  -689.75756487305807
    Total Energy =                       -689.7575648730580724
  @DF-RKS Final Energy:  -689.75756782250619
    Total Energy =                       -689.7575678225061893
  Basis Set: (6-311++G(D,P) AUX)
    Blend: AUG-CC-PVTZ-JKFIT
  Basis Set: 6-311++G(D,P)
    Blend: 6-311++G(D,P)
  Basis Set: (6-311++G(D,P) AUX)
    Blend: AUG-CC-PVTZ-JKFIT
  @DF-RKS Final Energy:  -689.75756926555664
    Total Energy =                       -689.7575692655566399
  Basis Set: 6-311++G(D,P)
    Blend: 6-311++G(D,P)
  Basis Set: (6-311++G(D,P) AUX)
    Blend: AUG-CC-PVTZ-JKFIT
  Charge       = 0
  Multiplicity = 1
  Basis Set: 6-311++G(D,P)
    Blend: 6-311++G(D,P)
  Basis Set: (6-311++G(D,P) AUX)
    Blend: AUG-CC-PVTZ-JKFIT

    Orbital Energies [Eh]
    ---------------------

    Doubly Occupied:

       1A   -102.662571     2A    -19.714216     3A    -19.609996
       4A    -10.719390     5A    -10.630895     6A     -9.805504
       7A     -7.530161     8A     -7.523993     9A     -7.523811
      10A     -1.264149    11A     -1.140789    12A     -0.937548
      13A     -0.843079    14A     -0.734525    15A     -0.660788
      16A     -0.603716    17A     -0.583858    18A     -0.539299
      19A     -0.520365    20A     -0.479175    21A     -0.470080
      22A     -0.389321    23A     -0.374884    24A     -0.365153
      25A     -0.350694

  @DF-RKS Final Energy:  -689.75756955902887

   => Energetics <=

    Nuclear Repulsion Energy =            237.8843686849426717
    One-Electron Energy =               -1420.6784212650159134
    Two-Electron Energy =                 520.7739245869507840
    DFT Exchange-Correlation Energy =     -27.7374415659064937
    Empirical Dispersion Energy =           0.0000000000000000
    VV10 Nonlocal Energy =                  0.0000000000000000
    Total Energy =                       -689.7575695590288660

  Dipole Moment: [D]
     X:     3.9948      Y:     2.3552      Z:    -1.9386     Total:     5.0263

    Molecular point group: c1
  Basis Set: 6-311++G(D,P)
    Blend: 6-311++G(D,P)
  Basis Set: (6-311++G(D,P) AUX)
    Blend: AUG-CC-PVTZ-JKFIT

  -Total Gradient:
     Atom            X                  Y                   Z
    ------   -----------------  -----------------  -----------------
       1       -0.000085623020    -0.000094963895     0.000079227705
       2        0.000055979538    -0.000026652644     0.000084220656
       3        0.000056629717     0.000067882454     0.000012144001
       4       -0.000030246647    -0.000067251289     0.000074498300
       5       -0.000017137514    -0.000023370682    -0.000007633726
       6       -0.000056645179    -0.000038374441     0.000012451610
       7       -0.000013186923    -0.000024672250     0.000011132407
       8       -0.000002491846    -0.000002990844     0.000005488439
       9        0.000027460057     0.000029502764    -0.000062226413
      10        0.000008524549    -0.000017767526     0.000101276963

  **** Optimization is complete! (in 33 steps) ****
    Final optimized geometry and variables:
    Molecular point group: c1

    Geometry (in Angstrom), charge = 0, multiplicity = 1:

    C           -0.064334101430    -0.457791213697    -0.356670048778
    O           -1.107129262530    -0.418350932437    -1.096448944097
    O            0.286593796915     1.078860683052    -0.494633598756
    H           -0.658542998030     0.858251152049    -1.109211539717
    H            1.484332970116     2.472826155599    -1.382887064918
    C            1.508237731565     1.407488678664    -1.165477269037
    H            1.602975870829     0.832988450692    -2.090359030448
    H            2.334711078196     1.187474028879    -0.491665036383
    CL          -0.281533372877    -0.753183103608     1.415153812771
    H            0.835163730647    -1.008739988353    -0.652375260349

*** Psi4 exiting successfully. Buy a developer a beer!
