                               Psi4 1.2.1 release

  ==> Input File <==

--------------------------------------------------------------------------
molecule{
0 1
 C    0.026460224061   -0.090206566796   -0.798622543229
 O   -1.092340847064   -0.535736320776   -1.484344471159
 F    1.059004261229   -0.021334854470    1.311280902965
 F   -1.105634967457    0.093161109452    1.277317178696
 H    1.055355731272    2.863644232603   -1.731413700453
 C    1.235005152951    1.799170060121   -1.597519469288
 H    1.298134887336    1.318008087902   -2.577857934380
 H    2.170499172748    1.655477828258   -1.049459230880
 O    0.138299548577    1.291877130275   -0.853324246647
 H   -1.818418801887    0.061102076472   -1.272230446828
 C   -0.041473064976   -0.458920691666    0.688310776801
 F   -0.111827640965   -1.778940784688    0.874850347370
 H    0.896598858514   -0.602145397791   -1.222786282201
}

set{
   basis 6-311++G(d,p)
   freeze_core True
}

set_num_threads(16)
optimize('m06-2x')
--------------------------------------------------------------------------

    Molecular point group: c1
  Charge       = 0
  Multiplicity = 1
  Basis Set: 6-311++G(D,P)
    Blend: 6-311++G(D,P)
  Basis Set: (6-311++G(D,P) AUX)
    Blend: AUG-CC-PVTZ-JKFIT
  @DF-RKS Final Energy:  -567.27569242812717
    Total Energy =                       -567.2756924281271722
    Molecular point group: c1
  Basis Set: 6-311++G(D,P)
    Blend: 6-311++G(D,P)
  Basis Set: (6-311++G(D,P) AUX)
    Blend: AUG-CC-PVTZ-JKFIT
  Basis Set: 6-311++G(D,P)
    Blend: 6-311++G(D,P)
  Basis Set: (6-311++G(D,P) AUX)
    Blend: AUG-CC-PVTZ-JKFIT
  @DF-RKS Final Energy:  -567.27558348150103
    Total Energy =                       -567.2755834815010303
  Basis Set: 6-311++G(D,P)
    Blend: 6-311++G(D,P)
  Basis Set: (6-311++G(D,P) AUX)
    Blend: AUG-CC-PVTZ-JKFIT
  Basis Set: 6-311++G(D,P)
    Blend: 6-311++G(D,P)
  @DF-RKS Final Energy:  -567.27671223064578
    Total Energy =                       -567.2767122306457850
  @DF-RKS Final Energy:  -567.27770882857783
    Total Energy =                       -567.2777088285778291
  @DF-RKS Final Energy:  -567.27742984131919
    Total Energy =                       -567.2774298413191900
  @DF-RKS Final Energy:  -567.27847376914519
    Total Energy =                       -567.2784737691451937
  @DF-RKS Final Energy:  -567.27876468019053
    Total Energy =                       -567.2787646801905339
  @DF-RKS Final Energy:  -567.27891050526841
    Total Energy =                       -567.2789105052684135
  @DF-RKS Final Energy:  -567.27873355904421
    Total Energy =                       -567.2787335590442126
  Basis Set: (6-311++G(D,P) AUX)
    Blend: AUG-CC-PVTZ-JKFIT
  Basis Set: 6-311++G(D,P)
    Blend: 6-311++G(D,P)
  Basis Set: (6-311++G(D,P) AUX)
    Blend: AUG-CC-PVTZ-JKFIT
  @DF-RKS Final Energy:  -567.27893911998888
    Total Energy =                       -567.2789391199888769
  Basis Set: 6-311++G(D,P)
    Blend: 6-311++G(D,P)
  Basis Set: (6-311++G(D,P) AUX)
    Blend: AUG-CC-PVTZ-JKFIT
  Charge       = 0
  Multiplicity = 1
  Basis Set: 6-311++G(D,P)
    Blend: 6-311++G(D,P)
  Basis Set: (6-311++G(D,P) AUX)
    Blend: AUG-CC-PVTZ-JKFIT

    Orbital Energies [Eh]
    ---------------------

    Doubly Occupied:

       1A    -25.287535     2A    -25.285422     3A    -25.284670
       4A    -19.662133     5A    -19.661833     6A    -10.805181
       7A    -10.681775     8A    -10.600827     9A     -1.481427
      10A     -1.387626    11A     -1.385716    12A     -1.237163
      13A     -1.163896    14A     -0.891847    15A     -0.810356
      16A     -0.766537    17A     -0.708842    18A     -0.704028
      19A     -0.697012    20A     -0.626266    21A     -0.607077
      22A     -0.580895    23A     -0.577435    24A     -0.554375
      25A     -0.544999    26A     -0.540452    27A     -0.522139
      28A     -0.517729    29A     -0.511900    30A     -0.474052
      31A     -0.419963    32A     -0.409579    33A     -0.379491

  @DF-RKS Final Energy:  -567.27894605230176

   => Energetics <=

    Nuclear Repulsion Energy =            447.7207441521614442
    One-Electron Energy =               -1671.9681099686265497
    Two-Electron Energy =                 689.0209944058361771
    DFT Exchange-Correlation Energy =     -32.0525746416728339
    Empirical Dispersion Energy =           0.0000000000000000
    VV10 Nonlocal Energy =                  0.0000000000000000
    Total Energy =                       -567.2789460523017624

  Dipole Moment: [D]
     X:     0.9470      Y:     1.1797      Z:    -2.1490     Total:     2.6280

    Molecular point group: c1
  Basis Set: 6-311++G(D,P)
    Blend: 6-311++G(D,P)
  Basis Set: (6-311++G(D,P) AUX)
    Blend: AUG-CC-PVTZ-JKFIT

  -Total Gradient:
     Atom            X                  Y                   Z
    ------   -----------------  -----------------  -----------------
       1        0.000048993711     0.000042153174     0.000117054219
       2       -0.000059524667    -0.000016832274    -0.000016953990
       3       -0.000002669369     0.000028778604     0.000038092072
       4       -0.000034576483    -0.000020002384    -0.000041694819
       5       -0.000034291172    -0.000041902753     0.000034464582
       6       -0.000000675321     0.000021691490    -0.000023301632
       7        0.000036842288     0.000009520355     0.000057939051
       8       -0.000042476322     0.000027119709     0.000031715499
       9       -0.000083103595    -0.000128305151     0.000066678052
      10       -0.000027200555    -0.000015722582    -0.000027447492
      11        0.000014272946     0.000162606080    -0.000109901862
      12       -0.000041752208    -0.000160577378    -0.000050065182
      13        0.000001826350    -0.000003395884     0.000031342781

  **** Optimization is complete! (in 11 steps) ****
    Final optimized geometry and variables:
    Molecular point group: c1

    Geometry (in Angstrom), charge = 0, multiplicity = 1:

    C            0.278652391306    -0.089093077077    -0.688293008697
    O           -0.710858745549    -0.406499538913    -1.611972672872
    F            0.732757088300    -0.128924077053     1.639612965492
    F           -1.319992614718     0.186478222193     1.028152238986
    H            1.466441442247     2.762483274079    -1.682439650789
    C            1.297003740899     1.696098243912    -1.809403645148
    H            0.712725011466     1.519173027259    -2.715010809027
    H            2.259829501749     1.180419598126    -1.886859601397
    O            0.593871558093     1.256603672987    -0.656730016244
    H           -1.504689003211     0.095200516149    -1.388709680420
    C           -0.179567266718    -0.449535499301     0.725636410355
    F           -0.412549158961    -1.761412662521     0.818316632390
    H            1.146209157445    -0.711582032379    -0.937164964131

*** Psi4 exiting successfully. Buy a developer a beer!
