                               Psi4 1.2.1 release

  ==> Input File <==

--------------------------------------------------------------------------
molecule{
0 1
    C           -0.064334101430    -0.457791213697    -0.356670048778
    O           -1.107129262530    -0.418350932437    -1.096448944097
    O            0.286593796915     1.078860683052    -0.494633598756
    H           -0.658542998030     0.858251152049    -1.109211539717
    H            1.484332970116     2.472826155599    -1.382887064918
    C            1.508237731565     1.407488678664    -1.165477269037
    H            1.602975870829     0.832988450692    -2.090359030448
    H            2.334711078196     1.187474028879    -0.491665036383
    CL          -0.281533372877    -0.753183103608     1.415153812771
    H            0.835163730647    -1.008739988353    -0.652375260349
}

set{
   basis 6-311++G(d,p)
   freeze_core True
   normal_modes_write True
}

set_num_threads(16)
frequencies('m06-2x')
--------------------------------------------------------------------------

    Molecular point group: c1
  Charge       = 0
  Multiplicity = 1
  Basis Set: 6-311++G(D,P)
    Blend: 6-311++G(D,P)
  Basis Set: (6-311++G(D,P) AUX)
    Blend: AUG-CC-PVTZ-JKFIT
  @DF-RKS Final Energy:  -689.75756955860936
    Total Energy =                       -689.7575695586093616
    Molecular point group: c1
  Basis Set: 6-311++G(D,P)
    Blend: 6-311++G(D,P)
  Basis Set: (6-311++G(D,P) AUX)
    Blend: AUG-CC-PVTZ-JKFIT
  Basis Set: 6-311++G(D,P)
    Blend: 6-311++G(D,P)
  Basis Set: (6-311++G(D,P) AUX)
    Blend: AUG-CC-PVTZ-JKFIT
  @DF-RKS Final Energy:  -689.75756845970693
    Total Energy =                       -689.7575684597069312
  Basis Set: 6-311++G(D,P)
    Blend: 6-311++G(D,P)
  Basis Set: (6-311++G(D,P) AUX)
    Blend: AUG-CC-PVTZ-JKFIT
  Basis Set: 6-311++G(D,P)
    Blend: 6-311++G(D,P)
  @DF-RKS Final Energy:  -689.75756904852494
    Total Energy =                       -689.7575690485250561
  @DF-RKS Final Energy:  -689.75756910409916
    Total Energy =                       -689.7575691040991614
  @DF-RKS Final Energy:  -689.75756933100945
    Total Energy =                       -689.7575693310094493
  @DF-RKS Final Energy:  -689.75756887033924
    Total Energy =                       -689.7575688703392416
  @DF-RKS Final Energy:  -689.75756934862113
    Total Energy =                       -689.7575693486211321
  @DF-RKS Final Energy:  -689.75756912964232
    Total Energy =                       -689.7575691296423201
  @DF-RKS Final Energy:  -689.75756917013518
    Total Energy =                       -689.7575691701351843
  @DF-RKS Final Energy:  -689.75756929159456
    Total Energy =                       -689.7575692915945638
  @DF-RKS Final Energy:  -689.75756924342045
    Total Energy =                       -689.7575692434204484
  @DF-RKS Final Energy:  -689.75756952134770
    Total Energy =                       -689.7575695213477047
  @DF-RKS Final Energy:  -689.75756911824510
    Total Energy =                       -689.7575691182451010
  @DF-RKS Final Energy:  -689.75756921128357
    Total Energy =                       -689.7575692112835668
  @DF-RKS Final Energy:  -689.75756910064501
    Total Energy =                       -689.7575691006450143
  @DF-RKS Final Energy:  -689.75756933979983
    Total Energy =                       -689.7575693397998293
  @DF-RKS Final Energy:  -689.75756911400788
    Total Energy =                       -689.7575691140078789
  @DF-RKS Final Energy:  -689.75756923546430
    Total Energy =                       -689.7575692354643024
  @DF-RKS Final Energy:  -689.75756901361024
    Total Energy =                       -689.7575690136102367
  @DF-RKS Final Energy:  -689.75756883161125
    Total Energy =                       -689.7575688316112519
  @DF-RKS Final Energy:  -689.75756865271569
    Total Energy =                       -689.7575686527156904
  @DF-RKS Final Energy:  -689.75756836357209
    Total Energy =                       -689.7575683635720907
  @DF-RKS Final Energy:  -689.75756832955085
    Total Energy =                       -689.7575683295508497
  @DF-RKS Final Energy:  -689.75756810030339
    Total Energy =                       -689.7575681003033878
  @DF-RKS Final Energy:  -689.75756768070858
    Total Energy =                       -689.7575676807085756
  @DF-RKS Final Energy:  -689.75756602178160
    Total Energy =                       -689.7575660217815994
  @DF-RKS Final Energy:  -689.75756595305631
    Total Energy =                       -689.7575659530563144
  @DF-RKS Final Energy:  -689.75756757323654
    Total Energy =                       -689.7575675732365426
  @DF-RKS Final Energy:  -689.75756783153793
    Total Energy =                       -689.7575678315379264
  @DF-RKS Final Energy:  -689.75756822409221
    Total Energy =                       -689.7575682240922106
  @DF-RKS Final Energy:  -689.75756819942796
    Total Energy =                       -689.7575681994279648
  @DF-RKS Final Energy:  -689.75756620565880
    Total Energy =                       -689.7575662056588044
  @DF-RKS Final Energy:  -689.75756642689703
    Total Energy =                       -689.7575664268970286
  @DF-RKS Final Energy:  -689.75756885653993
    Total Energy =                       -689.7575688565399332
  @DF-RKS Final Energy:  -689.75756876278035
    Total Energy =                       -689.7575687627803518
  @DF-RKS Final Energy:  -689.75756875391653
    Total Energy =                       -689.7575687539165301
  @DF-RKS Final Energy:  -689.75756884008354
    Total Energy =                       -689.7575688400834224
  @DF-RKS Final Energy:  -689.75756778873676
    Total Energy =                       -689.7575677887367647
  Basis Set: (6-311++G(D,P) AUX)
    Blend: AUG-CC-PVTZ-JKFIT
  Basis Set: 6-311++G(D,P)
    Blend: 6-311++G(D,P)
  Basis Set: (6-311++G(D,P) AUX)
    Blend: AUG-CC-PVTZ-JKFIT
  @DF-RKS Final Energy:  -689.75756681733890
    Total Energy =                       -689.7575668173388976
  Basis Set: 6-311++G(D,P)
    Blend: 6-311++G(D,P)
  Basis Set: (6-311++G(D,P) AUX)
    Blend: AUG-CC-PVTZ-JKFIT
    Molecular point group: c1
  Charge       = 0
  Multiplicity = 1
  Basis Set: 6-311++G(D,P)
    Blend: 6-311++G(D,P)
  Basis Set: (6-311++G(D,P) AUX)
    Blend: AUG-CC-PVTZ-JKFIT

    Orbital Energies [Eh]
    ---------------------

    Doubly Occupied:

       1A   -102.662571     2A    -19.714216     3A    -19.609995
       4A    -10.719390     5A    -10.630895     6A     -9.805504
       7A     -7.530161     8A     -7.523993     9A     -7.523811
      10A     -1.264149    11A     -1.140789    12A     -0.937548
      13A     -0.843079    14A     -0.734525    15A     -0.660788
      16A     -0.603716    17A     -0.583858    18A     -0.539299
      19A     -0.520365    20A     -0.479175    21A     -0.470080
      22A     -0.389321    23A     -0.374884    24A     -0.365153
      25A     -0.350694

  @DF-RKS Final Energy:  -689.75756955860970

   => Energetics <=

    Nuclear Repulsion Energy =            237.8843686849356800
    One-Electron Energy =               -1420.6784209629236102
    Two-Electron Energy =                 520.7739242632418382
    DFT Exchange-Correlation Energy =     -27.7374415438636106
    Empirical Dispersion Energy =           0.0000000000000000
    VV10 Nonlocal Energy =                  0.0000000000000000
    Total Energy =                       -689.7575695586097027

  Dipole Moment: [D]
     X:     3.9948      Y:     2.3552      Z:    -1.9386     Total:     5.0263

    Molecular point group: c1

    Geometry (in Angstrom), charge = 0, multiplicity = 1:

       Center              X                  Y                   Z               Mass
    ------------   -----------------  -----------------  -----------------  -----------------
         C           -0.064334101430    -0.457791213697    -0.356670048778    12.000000000000
         O           -1.107129262530    -0.418350932437    -1.096448944097    15.994914619560
         O            0.286593796915     1.078860683052    -0.494633598756    15.994914619560
         H           -0.658542998030     0.858251152049    -1.109211539717     1.007825032070
         H            1.484332970116     2.472826155599    -1.382887064918     1.007825032070
         C            1.508237731565     1.407488678664    -1.165477269037    12.000000000000
         H            1.602975870829     0.832988450692    -2.090359030448     1.007825032070
         H            2.334711078196     1.187474028879    -0.491665036383     1.007825032070
         CL          -0.281533372877    -0.753183103608     1.415153812771    34.968852682000
         H            0.835163730647    -1.008739988353    -0.652375260349     1.007825032070

  Basis Set: 6-311++G(D,P)
    Blend: 6-311++G(D,P)
  Basis Set: (6-311++G(D,P) AUX)
    Blend: AUG-CC-PVTZ-JKFIT

  -Total Gradient:
     Atom            X                  Y                   Z
    ------   -----------------  -----------------  -----------------
       1       -0.000085593219    -0.000094962667     0.000079205744
       2        0.000055970813    -0.000026667904     0.000084236169
       3        0.000056627848     0.000067875806     0.000012160626
       4       -0.000030242718    -0.000067233598     0.000074491140
       5       -0.000017137725    -0.000023353025    -0.000007637133
       6       -0.000056668224    -0.000038381499     0.000012459420
       7       -0.000013185003    -0.000024681189     0.000011116749
       8       -0.000002478461    -0.000002995596     0.000005497081
       9        0.000027450989     0.000029511069    -0.000062226139
      10        0.000008518400    -0.000017769788     0.000101276243

  Vibration                       1                   8                   9
  Freq [cm^-1]                1507.8844i           84.2428             192.7000
  Irrep                           A                   A                   A
  Reduced mass [u]              1.1859              3.1182              1.1539
  Force const [mDyne/A]        -1.5886              0.0130              0.0252

  Vibration                       10                  11                  12
  Freq [cm^-1]                 257.2152            293.1870            417.3890
  Irrep                           A                   A                   A
  Reduced mass [u]              3.5456              4.8463             13.6322
  Force const [mDyne/A]         0.1382              0.2454              1.3993

  Vibration                       13                  14                  15
  Freq [cm^-1]                 635.9980            761.0327            777.7204
  Irrep                           A                   A                   A
  Reduced mass [u]              5.2118              7.3292              3.9206
  Force const [mDyne/A]         1.2421              2.5010              1.3972

  Vibration                       16                  17                  18
  Freq [cm^-1]                1065.3620           1136.5255           1187.6367
  Irrep                           A                   A                   A
  Reduced mass [u]              1.7831              2.2465              1.2897
  Force const [mDyne/A]         1.1924              1.7097              1.0718

  Vibration                       19                  20                  21
  Freq [cm^-1]                1238.7897           1260.1005           1335.9551
  Irrep                           A                   A                   A
  Reduced mass [u]              1.2926              1.2403              1.1464
  Force const [mDyne/A]         1.1687              1.1604              1.2055

  Vibration                       22                  23                  24
  Freq [cm^-1]                1457.5353           1494.0584           1504.4065
  Irrep                           A                   A                   A
  Reduced mass [u]              1.8474              1.4216              1.1091
  Force const [mDyne/A]         2.3123              1.8697              1.4789

  Vibration                       25                  26                  27
  Freq [cm^-1]                1513.3434           2178.2134           3072.1513
  Irrep                           A                   A                   A
  Reduced mass [u]              1.1951              1.0540              1.0472
  Force const [mDyne/A]         1.6125              2.9464              5.8232

  Vibration                       28                  29                  30
  Freq [cm^-1]                3078.1063           3163.7837           3193.0408
  Irrep                           A                   A                   A
  Reduced mass [u]              1.0769              1.1024              1.1075
  Force const [mDyne/A]         6.0115              6.5016              6.6530

  ==> Thermochemistry Components <==

  Entropy, S
    Electronic S            0.000 [cal/(mol K)]        0.000 [J/(mol K)]       0.00000000 [mEh/K] (multiplicity = 1)
    Translational S        39.596 [cal/(mol K)]      165.671 [J/(mol K)]       0.06310072 [mEh/K] (mol. weight = 95.9978 [u], P = 101325.00 [Pa])
    Rotational S           26.599 [cal/(mol K)]      111.290 [J/(mol K)]       0.04238820 [mEh/K] (symmetry no. = 1)
    Vibrational S          11.197 [cal/(mol K)]       46.848 [J/(mol K)]       0.01784362 [mEh/K]
  Total S                  77.392 [cal/(mol K)]      323.810 [J/(mol K)]       0.12333254 [mEh/K]
  Correction S              0.000 [cal/(mol K)]        0.000 [J/(mol K)]       0.00000000 [mEh/K]

  Constant volume heat capacity, Cv
    Electronic Cv           0.000 [cal/(mol K)]        0.000 [J/(mol K)]       0.00000000 [mEh/K]
    Translational Cv        2.981 [cal/(mol K)]       12.472 [J/(mol K)]       0.00475022 [mEh/K]
    Rotational Cv           2.981 [cal/(mol K)]       12.472 [J/(mol K)]       0.00475022 [mEh/K]
    Vibrational Cv         12.612 [cal/(mol K)]       52.767 [J/(mol K)]       0.02009784 [mEh/K]
  Total Cv                 18.573 [cal/(mol K)]       77.710 [J/(mol K)]       0.02959829 [mEh/K]
  Correction Cv             0.000 [cal/(mol K)]        0.000 [J/(mol K)]       0.00000000 [mEh/K]

  Constant pressure heat capacity, Cp
    Electronic Cp           0.000 [cal/(mol K)]        0.000 [J/(mol K)]       0.00000000 [mEh/K]
    Translational Cp        4.968 [cal/(mol K)]       20.786 [J/(mol K)]       0.00791704 [mEh/K]
    Rotational Cp           2.981 [cal/(mol K)]       12.472 [J/(mol K)]       0.00475022 [mEh/K]
    Vibrational Cp         12.612 [cal/(mol K)]       52.767 [J/(mol K)]       0.02009784 [mEh/K]
  Total Cp                 20.560 [cal/(mol K)]       86.025 [J/(mol K)]       0.03276510 [mEh/K]
  Correction Cp             0.000 [cal/(mol K)]        0.000 [J/(mol K)]       0.00000000 [mEh/K]

  ==> Thermochemistry Energy Analysis <==

  Raw electronic energy, E0
  Total E0, Electronic energy at well bottom at 0 [K]                 -689.75756956 [Eh]

  Zero-point energy, ZPE_vib = Sum_i nu_i / 2
    Electronic ZPE          0.000 [kcal/mol]        0.000 [kJ/mol]       0.00000000 [Eh]
    Translational ZPE       0.000 [kcal/mol]        0.000 [kJ/mol]       0.00000000 [Eh]
    Rotational ZPE          0.000 [kcal/mol]        0.000 [kJ/mol]       0.00000000 [Eh]
    Vibrational ZPE        44.743 [kcal/mol]      187.207 [kJ/mol]       0.07130320 [Eh]       15649.241 [cm^-1]
  Correction ZPE           44.743 [kcal/mol]      187.207 [kJ/mol]       0.07130320 [Eh]       15649.241 [cm^-1]
  Total ZPE, Electronic energy at 0 [K]                               -689.68626636 [Eh]

  Thermal Energy, E (includes ZPE)
    Electronic E            0.000 [kcal/mol]        0.000 [kJ/mol]       0.00000000 [Eh]
    Translational E         0.889 [kcal/mol]        3.718 [kJ/mol]       0.00141628 [Eh]
    Rotational E            0.889 [kcal/mol]        3.718 [kJ/mol]       0.00141628 [Eh]
    Vibrational E          46.612 [kcal/mol]      195.025 [kJ/mol]       0.07428096 [Eh]
  Correction E             48.389 [kcal/mol]      202.462 [kJ/mol]       0.07711352 [Eh]
  Total E, Electronic energy at  298.15 [K]                           -689.68045604 [Eh]

  Enthalpy, H_trans = E_trans + k_B * T
    Electronic H            0.000 [kcal/mol]        0.000 [kJ/mol]       0.00000000 [Eh]
    Translational H         1.481 [kcal/mol]        6.197 [kJ/mol]       0.00236046 [Eh]
    Rotational H            0.889 [kcal/mol]        3.718 [kJ/mol]       0.00141628 [Eh]
    Vibrational H          46.612 [kcal/mol]      195.025 [kJ/mol]       0.07428096 [Eh]
  Correction H             48.982 [kcal/mol]      204.940 [kJ/mol]       0.07805770 [Eh]
  Total H, Enthalpy at  298.15 [K]                                    -689.67951186 [Eh]

  Gibbs free energy, G = H - T * S
    Electronic G            0.000 [kcal/mol]        0.000 [kJ/mol]       0.00000000 [Eh]
    Translational G       -10.324 [kcal/mol]      -43.197 [kJ/mol]      -0.01645302 [Eh]
    Rotational G           -7.042 [kcal/mol]      -29.463 [kJ/mol]      -0.01122176 [Eh]
    Vibrational G          43.274 [kcal/mol]      181.057 [kJ/mol]       0.06896088 [Eh]
  Correction G             25.907 [kcal/mol]      108.397 [kJ/mol]       0.04128610 [Eh]
  Total G, Free enthalpy at  298.15 [K]                               -689.71628345 [Eh]

*** Psi4 exiting successfully. Buy a developer a beer!
