                               Psi4 1.2.1 release

  ==> Input File <==

--------------------------------------------------------------------------

molecule{
0 1
 C   -2.005218033677   -0.199238039464    0.365171066565
 O   -2.183267033677   -0.071483039464    1.548171066565
 O   -2.717776033677   -0.146347039464   -0.710057933435
 N   -0.624503033677   -0.450497039464   -0.303712933435
 H   -1.535199033677   -0.277358039464   -1.217511933435
 H   -0.339892033677   -1.431514039464   -0.212527933435
 C    0.476621966323    0.432265960536    0.119586066565
 H    0.379000966323    0.583381960536    1.206769066565
 C    1.791265966323   -0.309118039464   -0.092778933435
 O    1.874996966323   -1.488367039464   -0.367322933435
 O    2.861449966323    0.485755960536    0.098375066565
 H    3.662418966323   -0.062403039464   -0.009882933435
 C    0.406614966323    1.791492960536   -0.585743933435
 H   -0.560928033677    2.263314960536   -0.386712933435
 H    1.194135966323    2.453050960536   -0.217351933435
 H    0.520726966323    1.675169960536   -1.668817933435
}

set basis 6-31+G*
set_num_threads(16)
e, wfn = properties('mp2', return_wfn=True)

d = wfn.Da().to_array()
s = wfn.S().to_array()
c = wfn.Ca().to_array()
occs = c.T.dot(s.dot(d).dot(s).dot(c))

molden(wfn, 'mp2.molden', density_a = psi4.core.Matrix.from_array(occs))
--------------------------------------------------------------------------

    Molecular point group: c1
  Charge       = 0
  Multiplicity = 1
  Basis Set: 6-31+G*
    Blend: 6-31+G*
  Basis Set: (6-31+G* AUX)
    Blend: HEAVY-AUG-CC-PVDZ-JKFIT

    Orbital Energies [Eh]
    ---------------------

    Doubly Occupied:

       1A    -20.666823     2A    -20.608784     3A    -20.584707
       4A    -20.575024     5A    -15.651902     6A    -11.439300
       7A    -11.431195     8A    -11.335721     9A    -11.265596
      10A     -1.508963    11A     -1.463134    12A     -1.406444
      13A     -1.372727    14A     -1.261546    15A     -1.074873
      16A     -0.951223    17A     -0.859064    18A     -0.805866
      19A     -0.754845    20A     -0.744748    21A     -0.726756
      22A     -0.715173    23A     -0.666221    24A     -0.663652
      25A     -0.640616    26A     -0.611615    27A     -0.609312
      28A     -0.588062    29A     -0.563500    30A     -0.550054
      31A     -0.520671    32A     -0.493131    33A     -0.477808
      34A     -0.463734    35A     -0.444056

  @DF-RHF Final Energy:  -509.41640193190710

   => Energetics <=

    Nuclear Repulsion Energy =            465.8888617527517795
    One-Electron Energy =               -1621.6168333930224890
    Two-Electron Energy =                 646.3115697083635496
    Total Energy =                       -509.4164019319071031
  Basis Set: (6-31+G* AUX)
    Blend: HEAVY-AUG-CC-PVDZ-RI
    Molecular point group: c1

    Geometry (in Angstrom), charge = 0, multiplicity = 1:

       Center              X                  Y                   Z               Mass
    ------------   -----------------  -----------------  -----------------  -----------------
         C           -2.005218033677    -0.199238039464     0.365171066565    12.000000000000
         O           -2.183267033677    -0.071483039464     1.548171066565    15.994914619560
         O           -2.717776033677    -0.146347039464    -0.710057933435    15.994914619560
         N           -0.624503033677    -0.450497039464    -0.303712933435    14.003074004780
         H           -1.535199033677    -0.277358039464    -1.217511933435     1.007825032070
         H           -0.339892033677    -1.431514039464    -0.212527933435     1.007825032070
         C            0.476621966323     0.432265960536     0.119586066565    12.000000000000
         H            0.379000966323     0.583381960536     1.206769066565     1.007825032070
         C            1.791265966323    -0.309118039464    -0.092778933435    12.000000000000
         O            1.874996966323    -1.488367039464    -0.367322933435    15.994914619560
         O            2.861449966323     0.485755960536     0.098375066565    15.994914619560
         H            3.662418966323    -0.062403039464    -0.009882933435     1.007825032070
         C            0.406614966323     1.791492960536    -0.585743933435    12.000000000000
         H           -0.560928033677     2.263314960536    -0.386712933435     1.007825032070
         H            1.194135966323     2.453050960536    -0.217351933435     1.007825032070
         H            0.520726966323     1.675169960536    -1.668817933435     1.007825032070

  Basis Set: 6-31+G*
    Blend: 6-31+G*
  Basis Set: (6-31+G* AUX)
    Blend: HEAVY-AUG-CC-PVDZ-JKFIT
	 Reference Energy          =    -509.4164019319071031 [Eh]
	 Singles Energy            =      -0.0000000000000000 [Eh]
	 Same-Spin Energy          =      -0.3992786887443693 [Eh]
	 Opposite-Spin Energy      =      -1.0676767048925067 [Eh]
	 Correlation Energy        =      -1.4669553936368760 [Eh]
	 Total Energy              =    -510.8833573255439546 [Eh]

	 ================> DF-SCS-MP2 Energies <==================
	-----------------------------------------------------------
	 SCS Same-Spin Scale       =       0.3333333333333333 [-]
	 SCS Opposite-Spin Scale   =       1.2000000000000000 [-]
	 SCS Same-Spin Energy      =      -0.1330928962481231 [Eh]
	 SCS Opposite-Spin Energy  =      -1.2812120458710079 [Eh]
	 SCS Correlation Energy    =      -1.4143049421191309 [Eh]
	 SCS Total Energy          =    -510.8307068740262480 [Eh]
	-----------------------------------------------------------

  Dipole Moment: [D]
     X:     5.3675      Y:     0.9315      Z:    -1.3467     Total:     5.6117

*** Psi4 exiting successfully. Buy a developer a beer!
