                         Program Version 4.1.1  - RELEASE  -
|  1> !UKS B3LYP SV(P) TightSCF KDIIS SOSCF Freq IRC
|  2>
|  3> %irc
|  4>   MaxIter 10000000
|  5>   Scale_Init_Displ 0.01
|  6>   Scale_Displ_SD 0.01
|  7> end
|  8>
|  9> *xyz 0 1
| 10>   C   0.16261692506246      0.40572217236705     -0.06657686988189
| 11>   O   -1.09072764609582      0.35750439052078     -0.13914219748602
| 12>   O   1.11774208591799      1.07647289171753     -0.13274831888595
| 13>   H   0.42430461462704     -1.00025185402871      0.21888732511452
| 14>   H   -0.61393497951167     -0.83944760057666      0.11958106113934
| 15> *
| 16>
| 17>                          ****END OF INPUT****

CARTESIAN COORDINATES (ANGSTROEM)
---------------------------------
  C      0.162617    0.405722   -0.066577
  O     -1.090728    0.357504   -0.139142
  O      1.117742    1.076473   -0.132748
  H      0.424305   -1.000252    0.218887
  H     -0.613935   -0.839448    0.119581

 Total Charge           Charge          ....    0
 Multiplicity           Mult            ....    1
 Number of Electrons    NEL             ....   24
 Basis Dimension        Dim             ....   46

ORBITAL ENERGIES
----------------
                 SPIN UP ORBITALS
  NO   OCC          E(Eh)            E(eV)
   0   1.0000     -19.198153      -522.4083
   1   1.0000     -19.192020      -522.2414
   2   1.0000     -10.389411      -282.7103
   3   1.0000      -1.137717       -30.9589
   4   1.0000      -1.079835       -29.3838
   5   1.0000      -0.624423       -16.9914
   6   1.0000      -0.550545       -14.9811
   7   1.0000      -0.503836       -13.7101
   8   1.0000      -0.498264       -13.5585
   9   1.0000      -0.393569       -10.7095
  10   1.0000      -0.356343        -9.6966
  11   1.0000      -0.311927        -8.4880
  12   0.0000      -0.053595        -1.4584
  13   0.0000      -0.002321        -0.0632
  14   0.0000       0.073681         2.0049
  15   0.0000       0.163999         4.4627
  16   0.0000       0.303582         8.2609

                 SPIN DOWN ORBITALS
  NO   OCC          E(Eh)            E(eV)
   0   1.0000     -19.198153      -522.4083
   1   1.0000     -19.192020      -522.2414
   2   1.0000     -10.389411      -282.7103
   3   1.0000      -1.137717       -30.9589
   4   1.0000      -1.079835       -29.3838
   5   1.0000      -0.624423       -16.9914
   6   1.0000      -0.550545       -14.9811
   7   1.0000      -0.503836       -13.7101
   8   1.0000      -0.498264       -13.5585
   9   1.0000      -0.393569       -10.7095
  10   1.0000      -0.356343        -9.6966
  11   1.0000      -0.311927        -8.4880
  12   0.0000      -0.053595        -1.4584
  13   0.0000      -0.002321        -0.0632
  14   0.0000       0.073681         2.0049
  15   0.0000       0.163999         4.4627
  16   0.0000       0.303582         8.2609

MULLIKEN ATOMIC CHARGES AND SPIN POPULATIONS
--------------------------------------------
   0 C :    0.169924    0.000000
   1 O :   -0.288642    0.000000
   2 O :   -0.093859    0.000000
   3 H :   -0.100119    0.000000
   4 H :    0.312697    0.000000
Sum of atomic charges         :   -0.0000000

LOEWDIN ATOMIC CHARGES AND SPIN POPULATIONS
-------------------------------------------
   0 C :    0.045595    0.000000
   1 O :   -0.254183    0.000000
   2 O :   -0.054529    0.000000
   3 H :   -0.046942    0.000000
   4 H :    0.310059    0.000000

  Mayer bond orders larger than 0.1
B(  0-C ,  1-O ) :   1.4777 B(  0-C ,  2-O ) :   2.1725 B(  0-C ,  3-H ) :   0.5050
B(  0-C ,  4-H ) :   0.1623 B(  1-O ,  2-O ) :   0.1397 B(  1-O ,  3-H ) :   0.1202
B(  1-O ,  4-H ) :   0.3215 B(  2-O ,  4-H ) :   0.1154 B(  3-H ,  4-H ) :   0.2808

FINAL SINGLE POINT ENERGY      -189.403314576047

DIPOLE MOMENT
-------------
                                X             Y             Z
Electronic contribution:      0.17269       2.14213      -0.39467
Nuclear contribution   :     -0.26837      -2.77982       0.51264
                        -----------------------------------------
Total Dipole Moment    :     -0.09568      -0.63768       0.11798
                        -----------------------------------------
Magnitude (a.u.)       :      0.65553
Magnitude (Debye)      :      1.66621

VIBRATIONAL FREQUENCIES
-----------------------

Scaling factor for frequencies =  1.000000000  (already applied!)

   0:         0.00 cm**-1
   1:         0.00 cm**-1
   2:         0.00 cm**-1
   3:         0.00 cm**-1
   4:         0.00 cm**-1
   5:         0.00 cm**-1
   6:     -2281.05 cm**-1 ***imaginary mode***
   7:       572.75 cm**-1
   8:       734.83 cm**-1
   9:       854.77 cm**-1
  10:      1081.07 cm**-1
  11:      1358.82 cm**-1
  12:      1666.82 cm**-1
  13:      2021.60 cm**-1
  14:      2156.69 cm**-1

IR SPECTRUM
-----------

 Mode    freq (cm**-1)   T**2         TX         TY         TZ
-------------------------------------------------------------------
   7:       572.75    1.100843  ( -0.037847   0.188173   1.031504)
   8:       734.83  165.039575  ( -3.413532  12.126675  -2.516174)
   9:       854.77  333.767684  (  5.227337 -17.137833   3.568935)
  10:      1081.07   79.400968  (  0.544437  -1.660554  -8.737684)
  11:      1358.82  200.774231  ( -9.384521  10.304076  -2.555588)
  12:      1666.82  151.870354  (  0.431914 -12.096871   2.312900)
  13:      2021.60  129.128811  ( -9.062210   6.610725  -1.817547)
  14:      2156.69  536.276152  (-21.634620  -8.258054   0.154648)

--------------------------
THERMOCHEMISTRY AT 298.15K
--------------------------

Temperature         ... 298.15 K
Pressure            ... 1.00 atm
Total Mass          ... 46.03 AMU

Throughout the following assumptions are being made:
  (1) The electronic state is orbitally nondegenerate
  (2) There are no thermally accessible electronically excited states
  (3) Hindered rotations indicated by low frequency modes are not
      treated as such but are treated as vibrations and this may
      cause some error
  (4) All equations used are the standard statistical mechanics
      equations for an ideal gas
  (5) All vibrations are strictly harmonic

freq.     572.75  E(vib)   ...       0.11
freq.     734.83  E(vib)   ...       0.06
freq.     854.77  E(vib)   ...       0.04
freq.    1081.07  E(vib)   ...       0.02
freq.    1358.82  E(vib)   ...       0.01
freq.    1666.82  E(vib)   ...       0.00
freq.    2021.60  E(vib)   ...       0.00
freq.    2156.69  E(vib)   ...       0.00

------------
INNER ENERGY
------------

The inner energy is: U= E(el) + E(ZPE) + E(vib) + E(rot) + E(trans)
    E(el)   - is the total energy from the electronic structure calculation
              = E(kin-el) + E(nuc-el) + E(el-el) + E(nuc-nuc)
    E(ZPE)  - the the zero temperature vibrational energy from the frequency calculation
    E(vib)  - the the finite temperature correction to E(ZPE) due to population
              of excited vibrational states
    E(rot)  - is the rotational thermal energy
    E(trans)- is the translational thermal energy

Summary of contributions to the inner energy U:
Electronic energy                ...   -189.40331458 Eh
Zero point energy                ...      0.02380080 Eh      14.94 kcal/mol
Thermal vibrational correction   ...      0.00037798 Eh       0.24 kcal/mol
Thermal rotational correction    ...      0.00141627 Eh       0.89 kcal/mol
Thermal translational correction ...      0.00141627 Eh       0.89 kcal/mol
-----------------------------------------------------------------------
Total thermal energy                   -189.37630325 Eh

Summary of corrections to the electronic energy:
(perhaps to be used in another calculation)
Total thermal correction                  0.00321053 Eh       2.01 kcal/mol
Non-thermal (ZPE) correction              0.02380080 Eh      14.94 kcal/mol
-----------------------------------------------------------------------
Total correction                          0.02701133 Eh      16.95 kcal/mol

--------
ENTHALPY
--------

The enthalpy is H = U + kB*T
                kB is Boltzmann's constant
Total free energy                 ...   -189.37630325 Eh
Thermal Enthalpy correction       ...      0.00094421 Eh       0.59 kcal/mol
-----------------------------------------------------------------------
Total Enthalpy                    ...   -189.37535904 Eh

Note: Rotational entropy computed according to Herzberg
Infrared and Raman Spectra, Chapter V,1, Van Nostrand Reinhold, 1945
Point Group:  C1, Symmetry Number:   1
Rotational constants in cm-1:     3.221520     0.379628     0.339608

Vibrational entropy computed according to the QRRHO of S. Grimme
Chem.Eur.J. 2012 18 9955

-------
ENTROPY
-------

The entropy contributions are T*S = T*(S(el)+S(vib)+S(rot)+S(trans))
     S(el)   - electronic entropy
     S(vib)  - vibrational entropy
     S(rot)  - rotational entropy
     S(trans)- translational entropy
The entropies will be listed as mutliplied by the temperature to get
units of energy

Electronic entropy                ...      0.00000000 Eh      0.00 kcal/mol
Vibrational entropy               ...      0.00048979 Eh      0.31 kcal/mol
Rotational entropy                ...      0.00992562 Eh      6.23 kcal/mol
Translational entropy             ...      0.01777224 Eh     11.15 kcal/mol
-----------------------------------------------------------------------
Final entropy term                ...      0.02818765 Eh     17.69 kcal/mol

-------------------
GIBBS FREE ENTHALPY
-------------------

The Gibbs free enthalpy is G = H - T*S

Total enthalpy                    ...   -189.37535904 Eh
Total entropy correction          ...     -0.02818765 Eh    -17.69 kcal/mol
-----------------------------------------------------------------------
Final Gibbs free enthalpy         ...   -189.40354668 Eh

For completeness - the Gibbs free enthalpy minus the electronic energy
G-E(el)                           ...     -0.00023211 Eh     -0.15 kcal/mol

                      ***********************HURRAY********************
                      ***********************HURRAY********************
                             ****ORCA TERMINATED NORMALLY****
TOTAL RUN TIME: 0 days 1 hours 32 minutes 28 seconds 860 msec
