                               Psi4 1.2.1 release

  ==> Input File <==

--------------------------------------------------------------------------
molecule{
0 1
 C   -0.190508602311   -1.136710097258    0.066469259906
 O   -1.141435599203   -1.006428605061   -0.660196610617
 H    0.632305702324   -0.540439499912    1.941670338592
 H   -1.155245410890   -0.575198437565    1.889071910323
 H    1.302222471948    2.533759956160   -1.369966651607
 C    1.290484544975    1.542377185267   -0.907772073782
 H    1.239414436659    0.782481281695   -1.695337002840
 H    2.219231195403    1.409688926285   -0.352876787808
 O    0.231573869162    1.408458929553    0.020837295349
 H   -0.600073093274    1.370663452171   -0.457147494129
 C   -0.241932803606   -1.070588973210    1.563578607046
 H   -0.222671301446   -2.092210471982    1.956961245196
 H    0.808409265442   -1.352147227631   -0.365293384448
}

set{
   basis 6-311++G(d,p)
   freeze_core True
}

set_num_threads(32)
optimize('m06-2x')
--------------------------------------------------------------------------

    Molecular point group: c1
  Charge       = 0
  Multiplicity = 1
  Basis Set: 6-311++G(D,P)
    Blend: 6-311++G(D,P)
  Basis Set: (6-311++G(D,P) AUX)
    Blend: AUG-CC-PVTZ-JKFIT
  @DF-RKS Final Energy:  -269.51523202502131
    Total Energy =                       -269.5152320250213052
    Molecular point group: c1
  Basis Set: 6-311++G(D,P)
    Blend: 6-311++G(D,P)
  Basis Set: (6-311++G(D,P) AUX)
    Blend: AUG-CC-PVTZ-JKFIT
  Basis Set: 6-311++G(D,P)
    Blend: 6-311++G(D,P)
  Basis Set: (6-311++G(D,P) AUX)
    Blend: AUG-CC-PVTZ-JKFIT
  @DF-RKS Final Energy:  -269.51547390230161
    Total Energy =                       -269.5154739023016077
  Basis Set: 6-311++G(D,P)
    Blend: 6-311++G(D,P)
  Basis Set: (6-311++G(D,P) AUX)
    Blend: AUG-CC-PVTZ-JKFIT
  Basis Set: 6-311++G(D,P)
    Blend: 6-311++G(D,P)
  @DF-RKS Final Energy:  -269.51653276114928
    Total Energy =                       -269.5165327611492785
  @DF-RKS Final Energy:  -269.51684995245660
    Total Energy =                       -269.5168499524565959
  @DF-RKS Final Energy:  -269.51702238901123
    Total Energy =                       -269.5170223890112311
  @DF-RKS Final Energy:  -269.51715566794900
    Total Energy =                       -269.5171556679489981
  @DF-RKS Final Energy:  -269.51724767231701
    Total Energy =                       -269.5172476723170121
  @DF-RKS Final Energy:  -269.51726796849522
    Total Energy =                       -269.5172679684952186
  @DF-RKS Final Energy:  -269.51731150856000
    Total Energy =                       -269.5173115085599989
  @DF-RKS Final Energy:  -269.51734182471483
    Total Energy =                       -269.5173418247148334
  @DF-RKS Final Energy:  -269.51734889226907
    Total Energy =                       -269.5173488922690694
  Basis Set: (6-311++G(D,P) AUX)
    Blend: AUG-CC-PVTZ-JKFIT
  Basis Set: 6-311++G(D,P)
    Blend: 6-311++G(D,P)
  Basis Set: (6-311++G(D,P) AUX)
    Blend: AUG-CC-PVTZ-JKFIT
  @DF-RKS Final Energy:  -269.51735060101180
    Total Energy =                       -269.5173506010117990
  Basis Set: 6-311++G(D,P)
    Blend: 6-311++G(D,P)
  Basis Set: (6-311++G(D,P) AUX)
    Blend: AUG-CC-PVTZ-JKFIT
  Charge       = 0
  Multiplicity = 1
  Basis Set: 6-311++G(D,P)
    Blend: 6-311++G(D,P)
  Basis Set: (6-311++G(D,P) AUX)
    Blend: AUG-CC-PVTZ-JKFIT

    Orbital Energies [Eh]
    ---------------------

    Doubly Occupied:

       1A    -19.627633     2A    -19.626491     3A    -10.636576
       4A    -10.579143     5A    -10.543321     6A     -1.181707
       7A     -1.148423     8A     -0.850472     9A     -0.779045
      10A     -0.668240    11A     -0.590459    12A     -0.563812
      13A     -0.531599    14A     -0.518140    15A     -0.508514
      16A     -0.500451    17A     -0.465033    18A     -0.435850
      19A     -0.413813    20A     -0.358194    21A     -0.334221

  @DF-RKS Final Energy:  -269.51735218560304

   => Energetics <=

    Nuclear Repulsion Energy =            178.9442524877765663
    One-Electron Energy =                -720.7745967950532986
    Two-Electron Energy =                 289.8268136958984087
    DFT Exchange-Correlation Energy =     -17.5138215742247141
    Empirical Dispersion Energy =           0.0000000000000000
    VV10 Nonlocal Energy =                  0.0000000000000000
    Total Energy =                       -269.5173521856030447

  Dipole Moment: [D]
     X:     1.0157      Y:    -0.3693      Z:     0.7600     Total:     1.3212

    Molecular point group: c1
  Basis Set: 6-311++G(D,P)
    Blend: 6-311++G(D,P)
  Basis Set: (6-311++G(D,P) AUX)
    Blend: AUG-CC-PVTZ-JKFIT

  -Total Gradient:
     Atom            X                  Y                   Z
    ------   -----------------  -----------------  -----------------
       1        0.000009019215     0.000098425786     0.000044803184
       2       -0.000061735831    -0.000206234317    -0.000070595559
       3        0.000046659500    -0.000090228629     0.000018488136
       4        0.000018942127     0.000066368271    -0.000008701715
       5        0.000002188628     0.000017307244     0.000024456947
       6        0.000011283772     0.000019140976     0.000013441045
       7        0.000009940717     0.000013189610     0.000010874310
       8        0.000003130874     0.000015193985     0.000035284385
       9       -0.000040212438     0.000006986800     0.000063151296
      10        0.000024193748    -0.000087865886     0.000037805710
      11        0.000032984539     0.000086211153    -0.000052071643
      12       -0.000108350791    -0.000019540046    -0.000033475548
      13        0.000046561581     0.000143280603     0.000014015733

  **** Optimization is complete! (in 13 steps) ****
    Final optimized geometry and variables:
    Molecular point group: c1

    Geometry (in Angstrom), charge = 0, multiplicity = 1:

    C           -0.219993264371    -1.187271518631     0.109434818000
    O           -1.027167200777    -0.942524939525    -0.749553468223
    H            0.156461448716    -0.511696989311     2.079702362262
    H           -1.557735802534    -0.928735135233     1.759214875898
    H            1.010850663307     2.492411731940    -1.585906267880
    C            1.196871045378     1.553194932012    -1.056620272238
    H            0.918060106051     0.716345306706    -1.705236936311
    H            2.260277788086     1.490112308567    -0.828780344705
    O            0.505121246394     1.502764129763     0.180832573662
    H           -0.437346124407     1.489841204064    -0.007656322856
    C           -0.520550037497    -1.206856721791     1.577547065874
    H           -0.327079450169    -2.207475178361     1.974091164677
    H            0.828343240836    -1.419356915356    -0.165022942350

*** Psi4 exiting successfully. Buy a developer a beer!
