                               Psi4 1.2.1 release

  ==> Input File <==

--------------------------------------------------------------------------

molecule {
0 1
 C   -0.013640455524   -0.304855975907   -0.810379818598
 O   -1.076658993565   -0.439893960784   -1.481825450171
 F    1.062864289563   -0.023598561706    1.294372531015
 F   -1.097616516737    0.080821320964    1.276570700398
 H    0.992026311039    2.914407371958   -1.825047800286
 C    1.211964312257    1.872706905514   -1.617459730801
 H    1.398768059056    1.323234574780   -2.542582410924
 H    2.063852546695    1.797892286290   -0.943598543110
 O    0.085591558919    1.317072805176   -0.932426337620
 H   -0.729913783851    1.169050389932   -1.501740898641
 C   -0.051533518422   -0.505930890741    0.712794309826
 F   -0.104165444803   -1.814358371024    0.969731468779
 H    0.968312521123   -0.646571602118   -1.195237418418
}

set{
  basis 6-311++G(d,p)
  freeze_core True
  cubeprop_tasks ['ESP']
}

set_num_threads(32)
E, wfn = energy('m06-2x', return_wfn=True)
cubeprop(wfn)
--------------------------------------------------------------------------

    Molecular point group: c1

    Geometry (in Angstrom), charge = 0, multiplicity = 1:

       Center              X                  Y                   Z               Mass
    ------------   -----------------  -----------------  -----------------  -----------------
         C           -0.013640455524    -0.304855975907    -0.810379818598    12.000000000000
         O           -1.076658993565    -0.439893960784    -1.481825450171    15.994914619560
         F            1.062864289563    -0.023598561706     1.294372531015    18.998403224000
         F           -1.097616516737     0.080821320964     1.276570700398    18.998403224000
         H            0.992026311039     2.914407371958    -1.825047800286     1.007825032070
         C            1.211964312257     1.872706905514    -1.617459730801    12.000000000000
         H            1.398768059056     1.323234574780    -2.542582410924     1.007825032070
         H            2.063852546695     1.797892286290    -0.943598543110     1.007825032070
         O            0.085591558919     1.317072805176    -0.932426337620    15.994914619560
         H           -0.729913783851     1.169050389932    -1.501740898641     1.007825032070
         C           -0.051533518422    -0.505930890741     0.712794309826    12.000000000000
         F           -0.104165444803    -1.814358371024     0.969731468779    18.998403224000
         H            0.968312521123    -0.646571602118    -1.195237418418     1.007825032070

  Charge       = 0
  Multiplicity = 1
  Basis Set: 6-311++G(D,P)
    Blend: 6-311++G(D,P)
  Basis Set: (6-311++G(D,P) AUX)
    Blend: AUG-CC-PVTZ-JKFIT

    Orbital Energies [Eh]
    ---------------------

    Doubly Occupied:

       1A    -25.283977     2A    -25.280720     3A    -25.280702
       4A    -19.733883     5A    -19.583818     6A    -10.798062
       7A    -10.678640     8A    -10.640244     9A     -1.476323
      10A     -1.382971    11A     -1.381534    12A     -1.274166
      13A     -1.131777    14A     -0.871522    15A     -0.852472
      16A     -0.766643    17A     -0.702628    18A     -0.701168
      19A     -0.671901    20A     -0.667283    21A     -0.609136
      22A     -0.582695    23A     -0.578673    24A     -0.574193
      25A     -0.543428    26A     -0.536328    27A     -0.517952
      28A     -0.517348    29A     -0.498525    30A     -0.491500
      31A     -0.471823    32A     -0.361357    33A     -0.331001

  @DF-RKS Final Energy:  -567.20677136927645

   => Energetics <=

    Nuclear Repulsion Energy =            444.7106618905394271
    One-Electron Energy =               -1665.8057816811349312
    Two-Electron Energy =                 685.9276617553645110
    DFT Exchange-Correlation Energy =     -32.0393133340453318
    Empirical Dispersion Energy =           0.0000000000000000
    VV10 Nonlocal Energy =                  0.0000000000000000
    Total Energy =                       -567.2067713692764528

  Dipole Moment: [D]
     X:     3.6783      Y:     3.7943      Z:    -2.1647     Total:     5.7108

  Basis Set: 6-311++G(D,P)
    Blend: 6-311++G(D,P)
*** Psi4 exiting successfully. Buy a developer a beer!
