                               Psi4 1.2.1 release

  ==> Input File <==

--------------------------------------------------------------------------
molecule{
0 2
C       0.373812       0.871847      -0.307479
H       0.058654       0.507392      -1.281982
H      -0.053210       1.817223       0.008737
C       1.550712       0.463313       0.247140
H       1.937838       0.940572       1.144717
C      -1.447991      -0.347048       0.523039
H      -1.013980      -1.341161       0.477254
H      -1.575035       0.073342       1.523186
N       2.238623      -0.706515      -0.107689
H       2.036287      -1.029095      -1.049008
H       3.241198      -0.657749       0.037803
O      -2.528854      -0.240759      -0.333964
H      -2.930472       0.632486      -0.211364
}

set{
   basis 6-311++G(d,p)
   freeze_core True
   opt_type ts
   reference uks
}

set_num_threads(32)
optimize('m06-2x')

--------------------------------------------------------------------------

    Molecular point group: c1
  Charge       = 0
  Multiplicity = 2
  Basis Set: 6-311++G(D,P)
    Blend: 6-311++G(D,P)
  Basis Set: (6-311++G(D,P) AUX)
    Blend: AUG-CC-PVTZ-JKFIT
  @DF-UKS Final Energy:  -248.95357634516972
    Total Energy =                       -248.9535763451698074
    Molecular point group: c1
  Basis Set: 6-311++G(D,P)
    Blend: 6-311++G(D,P)
  Basis Set: (6-311++G(D,P) AUX)
    Blend: AUG-CC-PVTZ-JKFIT
  Basis Set: 6-311++G(D,P)
    Blend: 6-311++G(D,P)
  Basis Set: (6-311++G(D,P) AUX)
    Blend: AUG-CC-PVTZ-JKFIT
  @DF-UKS Final Energy:  -248.95448162167952
    Total Energy =                       -248.9544816216794914
  Basis Set: 6-311++G(D,P)
    Blend: 6-311++G(D,P)
  Basis Set: (6-311++G(D,P) AUX)
    Blend: AUG-CC-PVTZ-JKFIT
  Basis Set: 6-311++G(D,P)
    Blend: 6-311++G(D,P)
  @DF-UKS Final Energy:  -248.95376251990865
    Total Energy =                       -248.9537625199086790
  @DF-UKS Final Energy:  -248.95396004423617
    Total Energy =                       -248.9539600442361120
  @DF-UKS Final Energy:  -248.95406381010758
    Total Energy =                       -248.9540638101075842
  @DF-UKS Final Energy:  -248.95412006822585
    Total Energy =                       -248.9541200682258761
  @DF-UKS Final Energy:  -248.95414691985201
    Total Energy =                       -248.9541469198519508
  @DF-UKS Final Energy:  -248.95415994880898
    Total Energy =                       -248.9541599488090640
  Basis Set: (6-311++G(D,P) AUX)
    Blend: AUG-CC-PVTZ-JKFIT
  Basis Set: 6-311++G(D,P)
    Blend: 6-311++G(D,P)
  Basis Set: (6-311++G(D,P) AUX)
    Blend: AUG-CC-PVTZ-JKFIT
  @DF-UKS Final Energy:  -248.95416955116883
    Total Energy =                       -248.9541695511688886
  Basis Set: 6-311++G(D,P)
    Blend: 6-311++G(D,P)
  Basis Set: (6-311++G(D,P) AUX)
    Blend: AUG-CC-PVTZ-JKFIT
  Charge       = 0
  Multiplicity = 2
  Basis Set: 6-311++G(D,P)
    Blend: 6-311++G(D,P)
  Basis Set: (6-311++G(D,P) AUX)
    Blend: AUG-CC-PVTZ-JKFIT

    Orbital Energies [Eh]
    ---------------------

    Alpha Occupied:

       1A    -19.640206     2A    -14.750081     3A    -10.573740
       4A    -10.560704     5A    -10.520926     6A     -1.167835
       7A     -1.015187     8A     -0.827650     9A     -0.753632
      10A     -0.665540    11A     -0.598892    12A     -0.592188
      13A     -0.536598    14A     -0.515236    15A     -0.478014
      16A     -0.464268    17A     -0.434873    18A     -0.412409
      19A     -0.411132    20A     -0.296927    21A     -0.184162

    Alpha Virtual:

      22A     -0.004847    23A      0.002194    24A      0.013976
      25A      0.025209    26A      0.031374    27A      0.044508
      28A      0.049156    29A      0.060740    30A      0.073566
      31A      0.092179    32A      0.098101    33A      0.104072
      34A      0.114199    35A      0.119038    36A      0.132658
      37A      0.134922    38A      0.138776    39A      0.144744
      40A      0.160238    41A      0.170920    42A      0.182890
      43A      0.191513    44A      0.200124    45A      0.209331
      46A      0.218361    47A      0.224732    48A      0.248104
      49A      0.249978    50A      0.257455    51A      0.262783
      52A      0.275229    53A      0.278328    54A      0.299534
      55A      0.307319    56A      0.318739    57A      0.340913
      58A      0.348155    59A      0.391139    60A      0.415220
      61A      0.425750    62A      0.505793    63A      0.523851
      64A      0.532992    65A      0.538809    66A      0.586457
      67A      0.594001    68A      0.618609    69A      0.632739
      70A      0.651747    71A      0.692291    72A      0.707074
      73A      0.714775    74A      0.737096    75A      0.755994
      76A      0.767831    77A      0.792690    78A      0.808127
      79A      0.845255    80A      0.865071    81A      0.885293
      82A      0.894317    83A      0.958553    84A      1.032955
      85A      1.088684    86A      1.122184    87A      1.143510
      88A      1.161239    89A      1.198284    90A      1.216684
      91A      1.262990    92A      1.300670    93A      1.322503
      94A      1.384164    95A      1.448014    96A      1.480607
      97A      1.511674    98A      1.547745    99A      1.559396
     100A      1.594399   101A      1.601890   102A      1.628780
     103A      1.659904   104A      1.689777   105A      1.724787
     106A      1.738006   107A      1.756482   108A      1.773048
     109A      1.809478   110A      1.839551   111A      1.856734
     112A      1.907224   113A      1.945286   114A      1.977780
     115A      1.992652   116A      2.059099   117A      2.081364
     118A      2.145907   119A      2.180484   120A      2.189309
     121A      2.221016   122A      2.266327   123A      2.312801
     124A      2.458585   125A      2.498350   126A      2.528548
     127A      2.548191   128A      2.581344   129A      2.599754
     130A      2.624219   131A      2.648254   132A      2.676476
     133A      2.691508   134A      2.730971   135A      2.743862
     136A      2.810759   137A      2.847501   138A      2.892408
     139A      2.906229   140A      2.964324   141A      3.018965
     142A      3.081345   143A      3.116975   144A      3.131283
     145A      3.191266   146A      3.283006   147A      3.354975
     148A      3.428035   149A      3.495359   150A      3.649922
     151A      3.789081   152A      3.845448   153A      3.892430
     154A      4.040907   155A      4.065267   156A      4.157092
     157A      4.842874   158A      4.999672   159A      5.145691
     160A      5.477195   161A      5.751244   162A     23.852195
     163A     23.925768   164A     24.264236   165A     35.706919
     166A     50.013455

    Beta Occupied:

       1A    -19.637496     2A    -14.748832     3A    -10.566633
       4A    -10.558317     5A    -10.522158     6A     -1.157765
       7A     -1.009478     8A     -0.822994     9A     -0.731155
      10A     -0.660767    11A     -0.594121    12A     -0.583544
      13A     -0.531824    14A     -0.503956    15A     -0.469189
      16A     -0.442740    17A     -0.427806    18A     -0.402953
      19A     -0.394151    20A     -0.268844

    Beta Virtual:

      21A     -0.005443    22A      0.001483    23A      0.004698
      24A      0.016243    25A      0.029213    26A      0.034938
      27A      0.046564    28A      0.056199    29A      0.065660
      30A      0.073933    31A      0.085507    32A      0.099892
      33A      0.111123    34A      0.115559    35A      0.118192
      36A      0.133711    37A      0.137467    38A      0.143829
      39A      0.145191    40A      0.159328    41A      0.165591
      42A      0.181871    43A      0.192248    44A      0.200462
      45A      0.211052    46A      0.221445    47A      0.226466
      48A      0.247878    49A      0.251089    50A      0.258597
      51A      0.264378    52A      0.276555    53A      0.283214
      54A      0.299162    55A      0.307127    56A      0.320664
      57A      0.344309    58A      0.350179    59A      0.392731
      60A      0.417865    61A      0.427266    62A      0.505997
      63A      0.525251    64A      0.539199    65A      0.542077
      66A      0.588650    67A      0.602724    68A      0.621282
      69A      0.637961    70A      0.656346    71A      0.703194
      72A      0.712804    73A      0.720770    74A      0.749528
      75A      0.759682    76A      0.767396    77A      0.791867
      78A      0.811886    79A      0.850875    80A      0.864830
      81A      0.891085    82A      0.902123    83A      0.977610
      84A      1.033823    85A      1.092068    86A      1.132076
      87A      1.148576    88A      1.168703    89A      1.202846
      90A      1.224896    91A      1.267162    92A      1.306753
      93A      1.334623    94A      1.388489    95A      1.453900
      96A      1.484145    97A      1.517230    98A      1.551315
      99A      1.567570   100A      1.601734   101A      1.603633
     102A      1.630591   103A      1.662197   104A      1.694033
     105A      1.732421   106A      1.748415   107A      1.763404
     108A      1.783727   109A      1.814885   110A      1.843124
     111A      1.859219   112A      1.908818   113A      1.952912
     114A      1.988694   115A      2.005686   116A      2.063536
     117A      2.083433   118A      2.153871   119A      2.185308
     120A      2.197507   121A      2.224155   122A      2.269089
     123A      2.316216   124A      2.462748   125A      2.505357
     126A      2.531284   127A      2.559911   128A      2.590131
     129A      2.609433   130A      2.626829   131A      2.656473
     132A      2.682016   133A      2.698077   134A      2.734140
     135A      2.758322   136A      2.814268   137A      2.851711
     138A      2.900137   139A      2.921752   140A      2.972399
     141A      3.035713   142A      3.081892   143A      3.123187
     144A      3.134974   145A      3.201679   146A      3.306077
     147A      3.358520   148A      3.436517   149A      3.498792
     150A      3.655900   151A      3.797299   152A      3.855256
     153A      3.898610   154A      4.050889   155A      4.071946
     156A      4.163352   157A      4.843374   158A      5.002546
     159A      5.159357   160A      5.481384   161A      5.753938
     162A     23.853525   163A     23.936783   164A     24.265471
     165A     35.705722   166A     50.011597

    Final Occupation by Irrep:
              A
    DOCC [    20 ]
    SOCC [     1 ]

  Energy converged.

  @DF-UKS Final Energy:  -248.95416950208119

   => Energetics <=

    Nuclear Repulsion Energy =            169.5472963407757732
    One-Electron Energy =                -672.8030285547456515
    Two-Electron Energy =                 271.0070857460056004
    DFT Exchange-Correlation Energy =     -16.7055230341168830
    Empirical Dispersion Energy =           0.0000000000000000
    VV10 Nonlocal Energy =                  0.0000000000000000
    Total Energy =                       -248.9541695020811289

  UHF NO Occupations:
  HONO-2 :   19  A 1.9995128
  HONO-1 :   20  A 1.9871545
  HONO-0 :   21  A 1.0000000
  LUNO+0 :   22  A 0.0128455
  LUNO+1 :   23  A 0.0004872
  LUNO+2 :   24  A 0.0003307
  LUNO+3 :   25  A 0.0002137

Properties will be evaluated at   0.000000,   0.000000,   0.000000 [a0]

Properties computed using the SCF density matrix

  Nuclear Dipole Moment: [e a0]
     X:     1.6740      Y:     0.8597      Z:     0.7308

  Electronic Dipole Moment: [e a0]
     X:    -1.2172      Y:    -0.4202      Z:    -0.5803

  Dipole Moment: [e a0]
     X:     0.4568      Y:     0.4395      Z:     0.1505     Total:     0.6515

  Dipole Moment: [D]
     X:     1.1610      Y:     1.1171      Z:     0.3825     Total:     1.6559

*** tstop() called on localhost.localdomain at Wed Mar 20 14:59:36 2019
Module time:
	user time   =    4335.07 seconds =      72.25 minutes
	system time =     348.51 seconds =       5.81 minutes
	total time  =        176 seconds =       2.93 minutes
Total time:
	user time   =   52775.22 seconds =     879.59 minutes
	system time =    4251.99 seconds =      70.87 minutes
	total time  =       2159 seconds =      35.98 minutes

*** tstart() called on localhost.localdomain
*** at Wed Mar 20 14:59:36 2019

         ------------------------------------------------------------
                                   SCF GRAD
                          Rob Parrish, Justin Turney,
                       Andy Simmonett, and Alex Sokolov
         ------------------------------------------------------------

  ==> Geometry <==

    Molecular point group: c1
    Full point group: C1

    Geometry (in Angstrom), charge = 0, multiplicity = 2:

       Center              X                  Y                   Z               Mass
    ------------   -----------------  -----------------  -----------------  -----------------
         C            0.364819572304     0.885638707205    -0.293385328155    12.000000000000
         H            0.042955425240     0.503101041630    -1.256611784445     1.007825032070
         H           -0.057846655277     1.831336416094     0.018171830111     1.007825032070
         C            1.536681261217     0.477582341863     0.257071878153    12.000000000000
         H            1.939528468975     0.964648429927     1.137708097518     1.007825032070
         C           -1.371766322174    -0.345435077790     0.532999320234    12.000000000000
         H           -0.919408451984    -1.326655050947     0.459473605321     1.007825032070
         H           -1.499607930294     0.064486175883     1.532049438614     1.007825032070
         N            2.196213775589    -0.698686332928    -0.103731577457    14.003074004780
         H            1.993219188852    -1.028033544183    -1.037688054610     1.007825032070
         H            3.186294637027    -0.715896941795     0.090052130986     1.007825032070
         O           -2.433874774404    -0.209614729286    -0.331024741996    15.994914619560
         H           -2.880197329972     0.622940781557    -0.162223084672     1.007825032070

  Nuclear repulsion =  169.547296340775745

  ==> Basis Set <==

  Basis Set: 6-311++G(D,P)
    Blend: 6-311++G(D,P)
    Number of shells: 90
    Number of basis function: 166
    Number of Cartesian functions: 171
    Spherical Harmonics?: true
    Max angular momentum: 2

  ==> DFJKGrad: Density-Fitted SCF Gradients <==

    Gradient:                    1
    J tasked:                  Yes
    K tasked:                  Yes
    wK tasked:                  No
    OpenMP threads:             32
    Integrals threads:          32
    Memory (MB):               375
    Schwarz Cutoff:          0E+00
    Fitting Condition:       1E-12

   => Auxiliary Basis Set <=

  Basis Set: (6-311++G(D,P) AUX)
    Blend: AUG-CC-PVTZ-JKFIT
    Number of shells: 262
    Number of basis function: 888
    Number of Cartesian functions: 1095
    Spherical Harmonics?: true
    Max angular momentum: 4

  ==> DFT Potential <==

   => Composite Functional: M06-2X <=

    Hybrid M06-2X Meta-GGA XC Functional

    Y. Zhao and D. G. Truhlar,  Theor. Chem. Acc., 120, 215, 2008

    Deriv               =              1
    GGA                 =           TRUE
    Meta                =           TRUE

    Exchange Hybrid     =           TRUE
    MP2 Hybrid          =          FALSE

   => Exchange Functionals <=

    1.0000   XC_HYB_MGGA_X_M06_2X

   => Exact (HF) Exchange <=

    0.5400               HF

   => Correlation Functionals <=

    1.0000   XC_MGGA_C_M06_2X

   => Molecular Quadrature <=

    Radial Scheme       =       TREUTLER
    Pruning Scheme      =           FLAT
    Nuclear Scheme      =       TREUTLER

    BS radius alpha     =              1
    Pruning alpha       =              1
    Radial Points       =             75
    Spherical Points    =            302
    Total Points        =         294450
    Total Blocks        =           2251
    Max Points          =            256
    Max Functions       =            160

  -Total Gradient:
     Atom            X                  Y                   Z
    ------   -----------------  -----------------  -----------------
       1        0.000306099856    -0.000055562981     0.000045314948
       2       -0.000007340818    -0.000078728483     0.000009287166
       3       -0.000189004264    -0.000076450292    -0.000001885788
       4       -0.000156897271     0.000233137070    -0.000013839482
       5        0.000013207640     0.000036539258     0.000004314377
       6       -0.000080352133     0.000141358896    -0.000089243704
       7        0.000052606931    -0.000098926974    -0.000048130618
       8        0.000033270547     0.000093880025     0.000109167545
       9        0.000033692657    -0.000198642676     0.000003105743
      10        0.000046377752     0.000034731064    -0.000059355249
      11        0.000051899113     0.000052241676     0.000019012081
      12       -0.000038155810    -0.000121307000    -0.000024813057
      13       -0.000101796029     0.000039106471     0.000063165134

*** tstop() called on localhost.localdomain at Wed Mar 20 14:59:59 2019
Module time:
	user time   =     541.11 seconds =       9.02 minutes
	system time =      41.90 seconds =       0.70 minutes
	total time  =         23 seconds =       0.38 minutes
Total time:
	user time   =   53316.43 seconds =     888.61 minutes
	system time =    4293.90 seconds =      71.56 minutes
	total time  =       2182 seconds =      36.37 minutes

			-----------------------------------------
			 OPTKING 2.0: for geometry optimizations
			  - R.A. King,  Bethel University
			-----------------------------------------

	Previous internal coordinate definitions found.
	---Fragment 1 Geometry and Gradient---
	 C           0.6894090796        1.6736146093       -0.5544179216
	 H           0.0811739896        0.9507231859       -2.3746521280
	 H          -0.1093143362        3.4607242836        0.0343397822
	 C           2.9039067372        0.9024998320        0.4857954462
	 H           3.6651776333        1.8229213471        2.1499567235
	 C          -2.5922626672       -0.6527776937        1.0072227443
	 H          -1.7374301785       -2.5070147191        0.8682792793
	 H          -2.8338482950        0.1218612118        2.8951538610
	 N           4.1502425651       -1.3203258220       -0.1960242727
	 H           3.7666383897       -1.9427018539       -1.9609462346
	 H           6.0212242427       -1.3528491594        0.1701738652
	 O          -4.5993567654       -0.3961144318       -0.6255461056
	 H          -5.4427841623        1.1771874741       -0.3065572025
	             0.0003060999       -0.0000555630        0.0000453149
	            -0.0000073408       -0.0000787285        0.0000092872
	            -0.0001890043       -0.0000764503       -0.0000018858
	            -0.0001568973        0.0002331371       -0.0000138395
	             0.0000132076        0.0000365393        0.0000043144
	            -0.0000803521        0.0001413589       -0.0000892437
	             0.0000526069       -0.0000989270       -0.0000481306
	             0.0000332705        0.0000938800        0.0001091675
	             0.0000336927       -0.0001986427        0.0000031057
	             0.0000463778        0.0000347311       -0.0000593552
	             0.0000518991        0.0000522417        0.0000190121
	            -0.0000381558       -0.0001213070       -0.0000248131
	            -0.0001017960        0.0000391065        0.0000631651

	---Fragment 1 Intrafragment Coordinates---
	 - Coordinate -           - BOHR/RAD -       - ANG/DEG -
	 R(1,2)           =         2.050799	       1.085236
	 R(1,3)           =         2.044103	       1.081693
	 R(1,4)           =         2.565280	       1.357488
	 R(1,6)           =         4.315112	       2.283459
	 R(4,5)           =         2.048449	       1.083992
	 R(4,9)           =         2.638027	       1.395984
	 R(6,7)           =         2.046519	       1.082971
	 R(6,8)           =         2.054924	       1.087419
	 R(6,12)          =         2.600046	       1.375885
	 R(9,10)          =         1.910354	       1.010916
	 R(9,11)          =         1.906759	       1.009014
	 R(12,13)         =         1.813395	       0.959607
	 B(1,4,5)         =         2.112008	     121.009157
	 B(1,4,9)         =         2.160756	     123.802209
	 B(1,6,7)         =         1.717561	      98.408987
	 B(1,6,8)         =         1.791243	     102.630690
	 B(1,6,12)        =         1.882399	     107.853545
	 B(2,1,3)         =         2.035248	     116.611103
	 B(2,1,4)         =         2.105957	     120.662436
	 B(2,1,6)         =         1.476276	      84.584387
	 B(3,1,4)         =         2.075244	     118.902726
	 B(3,1,6)         =         1.640797	      94.010763
	 B(4,1,6)         =         1.925918	     110.346946
	 B(4,9,10)        =         2.002509	     114.735342
	 B(4,9,11)        =         2.013429	     115.360981
	 B(5,4,9)         =         1.996542	     114.393432
	 B(6,12,13)       =         1.911573	     109.525042
	 B(7,6,8)         =         2.040959	     116.938319
	 B(7,6,12)        =         1.948995	     111.669214
	 B(8,6,12)        =         2.036419	     116.678202
	 B(10,9,11)       =         1.948632	     111.648399
	 D(1,4,9,10)      =         0.440043	      25.212588
	 D(1,4,9,11)      =         2.742177	     157.115150
	 D(1,6,12,13)     =        -1.399599	     -80.191130
	 D(2,1,4,5)       =         2.974145	     170.405978
	 D(2,1,4,9)       =        -0.355828	     -20.387423
	 D(2,1,6,7)       =         1.322581	      75.778321
	 D(2,1,6,8)       =        -2.863391	    -164.060234
	 D(2,1,6,12)      =        -0.703546	     -40.310201
	 D(3,1,4,5)       =         0.229752	      13.163794

  **** Optimization is complete! (in 10 steps) ****
    Final optimized geometry and variables:
    Molecular point group: c1

    Geometry (in Angstrom), charge = 0, multiplicity = 2:

    C            0.364819572304     0.885638707205    -0.293385328155
    H            0.042955425240     0.503101041630    -1.256611784445
    H           -0.057846655277     1.831336416094     0.018171830111
    C            1.536681261217     0.477582341863     0.257071878153
    H            1.939528468975     0.964648429927     1.137708097518
    C           -1.371766322174    -0.345435077790     0.532999320234
    H           -0.919408451984    -1.326655050947     0.459473605321
    H           -1.499607930294     0.064486175883     1.532049438614
    N            2.196213775589    -0.698686332928    -0.103731577457
    H            1.993219188852    -1.028033544183    -1.037688054610
    H            3.186294637027    -0.715896941795     0.090052130986
    O           -2.433874774404    -0.209614729286    -0.331024741996
    H           -2.880197329972     0.622940781557    -0.162223084672

*** Psi4 exiting successfully. Buy a developer a beer!
