                         Program Version 4.1.1  - RELEASE  -
|  1> !UKS B3LYP SV(P) TightSCF KDIIS SOSCF OPT
|  2>
|  3> *xyz 0 1
|  4>   C       0.320766     -0.393821      0.096665
|  5>   O      -1.023644     -0.389487      0.004278
|  6>   O       0.991057      0.582184     -0.044133
|  7>   H       0.734769     -1.410346      0.319085
|  8>   H      -1.363305     -1.290451      0.153553
|  9> *
| 10>
| 11>                          ****END OF INPUT****
 Total Charge           Charge          ....    0
 Multiplicity           Mult            ....    1
 Number of Electrons    NEL             ....   24
FINAL SINGLE POINT ENERGY      -189.510478105847
FINAL SINGLE POINT ENERGY      -189.510503695636
FINAL SINGLE POINT ENERGY      -189.510512638618
FINAL SINGLE POINT ENERGY      -189.510512050777
FINAL SINGLE POINT ENERGY      -189.510513114567
                    ***********************HURRAY********************

CARTESIAN COORDINATES (ANGSTROEM)
---------------------------------
  C      0.322845   -0.396430    0.097319
  O     -1.021995   -0.391329    0.004931
  O      0.988485    0.582375   -0.044438
  H      0.746488   -1.409539    0.319790
  H     -1.376179   -1.286999    0.151846

 Multiplicity           Mult            ....    1
 Number of Electrons    NEL             ....   24
 Basis Dimension        Dim             ....   46

ORBITAL ENERGIES
----------------
                 SPIN UP ORBITALS
  NO   OCC          E(Eh)            E(eV)
   0   1.0000     -19.188130      -522.1356
   1   1.0000     -19.130999      -520.5810
   2   1.0000     -10.322360      -280.8857
   3   1.0000      -1.099509       -29.9192
   4   1.0000      -1.022036       -27.8110
   5   1.0000      -0.637463       -17.3463
   6   1.0000      -0.579892       -15.7797
   7   1.0000      -0.452688       -12.3183
   8   1.0000      -0.450523       -12.2594
   9   1.0000      -0.399679       -10.8758
  10   1.0000      -0.330573        -8.9954
  11   1.0000      -0.288153        -7.8410
  12   0.0000       0.001270         0.0346
  13   0.0000       0.024160         0.6574
  14   0.0000       0.091253         2.4831
  15   0.0000       0.232475         6.3260
  16   0.0000       0.276061         7.5120

                 SPIN DOWN ORBITALS
  NO   OCC          E(Eh)            E(eV)
   0   1.0000     -19.188130      -522.1356
   1   1.0000     -19.130999      -520.5810
   2   1.0000     -10.322360      -280.8857
   3   1.0000      -1.099509       -29.9192
   4   1.0000      -1.022036       -27.8110
   5   1.0000      -0.637463       -17.3463
   6   1.0000      -0.579892       -15.7797
   7   1.0000      -0.452688       -12.3183
   8   1.0000      -0.450523       -12.2594
   9   1.0000      -0.399679       -10.8758
  10   1.0000      -0.330573        -8.9954
  11   1.0000      -0.288153        -7.8410
  12   0.0000       0.001270         0.0346
  13   0.0000       0.024160         0.6574
  14   0.0000       0.091253         2.4831
  15   0.0000       0.232475         6.3260
  16   0.0000       0.276061         7.5120

MULLIKEN ATOMIC CHARGES AND SPIN POPULATIONS
--------------------------------------------
   0 C :    0.147592    0.000000
   1 O :   -0.327935    0.000000
   2 O :   -0.195208    0.000000
   3 H :    0.051380    0.000000
   4 H :    0.324171    0.000000
Sum of atomic charges         :    0.0000000

LOEWDIN ATOMIC CHARGES AND SPIN POPULATIONS
-------------------------------------------
   0 C :    0.022796    0.000000
   1 O :   -0.251306    0.000000
   2 O :   -0.144376    0.000000
   3 H :    0.071080    0.000000
   4 H :    0.301806    0.000000

  Mayer bond orders larger than 0.1
B(  0-C ,  1-O ) :   1.1673 B(  0-C ,  2-O ) :   2.1355 B(  0-C ,  3-H ) :   0.9124
B(  1-O ,  4-H ) :   0.8334

FINAL SINGLE POINT ENERGY      -189.510513100382

DIPOLE MOMENT
-------------
                                X             Y             Z
Electronic contribution:      0.17005       0.93839      -0.16714
Nuclear contribution   :     -0.70335      -2.34384       0.39998
                        -----------------------------------------
Total Dipole Moment    :     -0.53330      -1.40545       0.23283
                        -----------------------------------------
Magnitude (a.u.)       :      1.52116
Magnitude (Debye)      :      3.86647

Rotational constants in cm-1:     2.921849     0.388442     0.342861
Rotational constants in MHz : 87594.840333 11645.209631 10278.715899

                             ****ORCA TERMINATED NORMALLY****
TOTAL RUN TIME: 0 days 0 hours 0 minutes 21 seconds 305 msec
