                               Psi4 1.2.1 release

  ==> Input File <==

--------------------------------------------------------------------------
molecule{
0 1
 C    0.046058198010    0.114213216157   -1.177786976883
 O   -1.017614360712   -0.394230565245   -1.898519371293
CL    1.424670873455    0.382760696912    1.125805667520
CL   -1.493198526182    0.335018457405    1.064154353267
 H    0.828913659389    3.129754812052   -2.137712973256
 C    1.106208371954    2.090065329129   -1.977265400680
 H    1.223330758228    1.594646423657   -2.945341086294
 H    2.045110310176    2.045228800423   -1.418139293883
 O    0.054128080929    1.500076366498   -1.228770276278
 H   -1.781779486389    0.164178230139   -1.715900309538
 C   -0.010189400414   -0.300063287015    0.324616389208
CL    0.022884959217   -2.067430225731    0.494282483373
 H    0.960814278522   -0.328239835404   -1.585121615073

}

set{
   basis 6-311++G(d,p)
   freeze_core True
}

set_num_threads(16)
optimize('m06-2x')
--------------------------------------------------------------------------

    Molecular point group: c1
  Charge       = 0
  Multiplicity = 1
  Basis Set: 6-311++G(D,P)
    Blend: 6-311++G(D,P)
  Basis Set: (6-311++G(D,P) AUX)
    Blend: AUG-CC-PVTZ-JKFIT
  @DF-RKS Final Energy: -1648.31722237777149
    Total Energy =                      -1648.3172223777714862
    Molecular point group: c1
  Basis Set: 6-311++G(D,P)
    Blend: 6-311++G(D,P)
  Basis Set: (6-311++G(D,P) AUX)
    Blend: AUG-CC-PVTZ-JKFIT
  Basis Set: 6-311++G(D,P)
    Blend: 6-311++G(D,P)
  Basis Set: (6-311++G(D,P) AUX)
    Blend: AUG-CC-PVTZ-JKFIT
  @DF-RKS Final Energy: -1648.31743999606147
    Total Energy =                      -1648.3174399960614664
  Basis Set: 6-311++G(D,P)
    Blend: 6-311++G(D,P)
  Basis Set: (6-311++G(D,P) AUX)
    Blend: AUG-CC-PVTZ-JKFIT
  Basis Set: 6-311++G(D,P)
    Blend: 6-311++G(D,P)
  @DF-RKS Final Energy: -1648.31790673332875
    Total Energy =                      -1648.3179067333287549
  @DF-RKS Final Energy: -1648.31802837322562
    Total Energy =                      -1648.3180283732256157
  @DF-RKS Final Energy: -1648.31832068185827
    Total Energy =                      -1648.3183206818582676
  @DF-RKS Final Energy: -1648.31663116753225
    Total Energy =                      -1648.3166311675322504
  @DF-RKS Final Energy: -1648.31857947869275
    Total Energy =                      -1648.3185794786927545
  @DF-RKS Final Energy: -1648.31916405259904
    Total Energy =                      -1648.3191640525990351
  @DF-RKS Final Energy: -1648.31937214614527
    Total Energy =                      -1648.3193721461452697
  @DF-RKS Final Energy: -1648.31943508986046
    Total Energy =                      -1648.3194350898604625
  @DF-RKS Final Energy: -1648.31946683306705
    Total Energy =                      -1648.3194668330670538
  @DF-RKS Final Energy: -1648.31947872682190
    Total Energy =                      -1648.3194787268218988
  Basis Set: (6-311++G(D,P) AUX)
    Blend: AUG-CC-PVTZ-JKFIT
  Basis Set: 6-311++G(D,P)
    Blend: 6-311++G(D,P)
  Basis Set: (6-311++G(D,P) AUX)
    Blend: AUG-CC-PVTZ-JKFIT
  @DF-RKS Final Energy: -1648.31947758740444
    Total Energy =                      -1648.3194775874044353
  Basis Set: 6-311++G(D,P)
    Blend: 6-311++G(D,P)
  Basis Set: (6-311++G(D,P) AUX)
    Blend: AUG-CC-PVTZ-JKFIT
  Charge       = 0
  Multiplicity = 1
  Basis Set: 6-311++G(D,P)
    Blend: 6-311++G(D,P)
  Basis Set: (6-311++G(D,P) AUX)
    Blend: AUG-CC-PVTZ-JKFIT

    Orbital Energies [Eh]
    ---------------------

    Doubly Occupied:

       1A   -102.700571     2A   -102.697159     3A   -102.696929
       4A    -19.658257     5A    -19.657776     6A    -10.735635
       7A    -10.684731     8A    -10.598516     9A     -9.843292
      10A     -9.839897    11A     -9.839700    12A     -7.568581
      13A     -7.565311    14A     -7.565099    15A     -7.561427
      16A     -7.561084    17A     -7.557897    18A     -7.557669
      19A     -7.557664    20A     -7.557499    21A     -1.238044
      22A     -1.160946    23A     -1.057157    24A     -0.945074
      25A     -0.941793    26A     -0.855835    27A     -0.776175
      28A     -0.710045    29A     -0.632466    30A     -0.611572
      31A     -0.602791    32A     -0.553007    33A     -0.546387
      34A     -0.516672    35A     -0.504812    36A     -0.483577
      37A     -0.437063    38A     -0.427770    39A     -0.421559
      40A     -0.417293    41A     -0.395335    42A     -0.389415
      43A     -0.383332    44A     -0.377490    45A     -0.367326

  @DF-RKS Final Energy: -1648.31947845602826

   => Energetics <=

    Nuclear Repulsion Energy =            681.7090428585090649
    One-Electron Energy =               -3628.1203178836994994
    Two-Electron Energy =                1355.2049323114429171
    DFT Exchange-Correlation Energy =     -57.1131357422804342
    Empirical Dispersion Energy =           0.0000000000000000
    VV10 Nonlocal Energy =                  0.0000000000000000
    Total Energy =                      -1648.3194784560282642

  Dipole Moment: [D]
     X:     0.6266      Y:     1.2744      Z:    -1.6780     Total:     2.1982

    Molecular point group: c1
  Basis Set: 6-311++G(D,P)
    Blend: 6-311++G(D,P)
  Basis Set: (6-311++G(D,P) AUX)
    Blend: AUG-CC-PVTZ-JKFIT

  -Total Gradient:
     Atom            X                  Y                   Z
    ------   -----------------  -----------------  -----------------
       1       -0.000004652156     0.000001779244     0.000009730546
       2        0.000012943606    -0.000005526474     0.000007904176
       3       -0.000026632403    -0.000000090791     0.000007476852
       4       -0.000010568882    -0.000007597240     0.000012925190
       5       -0.000014803243    -0.000012303436     0.000010282959
       6       -0.000025341107     0.000013238912     0.000040992016
       7       -0.000009620110    -0.000000299710     0.000007164031
       8       -0.000002722884     0.000004456007     0.000018578562
       9       -0.000010234073     0.000007310373     0.000003828412
      10       -0.000013213064    -0.000002912576     0.000015569461
      11        0.000000065490     0.000022438049     0.000020283922
      12        0.000000644789    -0.000011089326     0.000021271120
      13       -0.000004164407    -0.000000057768     0.000021208156

  **** Optimization is complete! (in 14 steps) ****
    Final optimized geometry and variables:
    Molecular point group: c1

    Geometry (in Angstrom), charge = 0, multiplicity = 1:

    C            0.328179604781     0.164130505103    -1.077861724629
    O           -0.606069650010    -0.257225366753    -2.010307440703
    CL           1.240147716329     0.207168152969     1.480423632490
    CL          -1.592337943982     0.419264617670     0.839724636985
    H            1.134957438469     3.156242179326    -2.036696377072
    C            1.110425277618     2.077882834915    -2.173876661829
    H            0.565724747983     1.832431636267    -3.088411420434
    H            2.134471819001     1.695935390609    -2.242477369468
    O            0.457329839944     1.539823377682    -1.034305775017
    H           -1.453086291395     0.155589312208    -1.797239437164
    C           -0.034447017265    -0.298031685167     0.358168997560
    CL          -0.166924010852    -2.067875389155     0.368260346200
    H            1.271359612282    -0.328384628738    -1.342360067585

*** Psi4 exiting successfully. Buy a developer a beer!
