                               Psi4 1.2.1 release

  ==> Input File <==

--------------------------------------------------------------------------
molecule{
0 1
    C            0.811580336497    -0.124634181555    -0.260510086364
    O           -0.364471495023     0.767971569374    -0.798959571635
    C           -1.568302374920    -0.333362835762     0.729817345686
    H           -1.975322286299    -0.307097463287     1.740649404246
    N           -1.253830822057     0.843192549785     0.235858782153
    O            0.499825810587    -0.734344144268     0.810883157421
    N            1.795452632562    -0.029413844184    -1.067968023524
    C           -1.063160988176     2.027823787532     1.069913515338
    H           -1.167983393922     2.902719484811     0.429114500978
    H           -1.826213365913     2.036934509191     1.849983007916
    H           -0.058645787040     1.994040324688     1.502194332139
    C            2.945515185481    -0.862535846558    -0.704572726705
    H            3.531243081885    -1.047657558084    -1.607806122951
    H            3.587029276640    -0.340716622580     0.016089390371
    H            2.646880975375    -1.822507507368    -0.263330463882
    C           -1.848673313920    -1.527890094426    -0.110108022860
    H           -1.521507165763    -2.424552992305     0.419907730297
    H           -2.933880463659    -1.593259477446    -0.266489000101
    H           -1.346128067338    -1.467786969069    -1.074905430339

}

set{
   basis 6-31+G(d)
   freeze_core True
   normal_modes_write True
}

frequencies('mp2')
--------------------------------------------------------------------------

    Molecular point group: c1
  Charge       = 0
  Multiplicity = 1
  Basis Set: 6-31+G(D)
    Blend: 6-31+G(D)
  Basis Set: (6-31+G(D) AUX)
    Blend: HEAVY-AUG-CC-PVDZ-JKFIT
  @DF-RHF Final Energy:  -453.65589703066235
    Total Energy =                       -453.6558970306623451
  Basis Set: (6-31+G(D) AUX)
    Blend: HEAVY-AUG-CC-PVDZ-RI
    Molecular point group: c1
  Basis Set: 6-31+G(D)
    Blend: 6-31+G(D)
  Basis Set: (6-31+G(D) AUX)
    Blend: HEAVY-AUG-CC-PVDZ-JKFIT
  Basis Set: (6-31+G(D) AUX)
    Blend: HEAVY-AUG-CC-PVDZ-JKFIT
	 Reference Energy          =    -453.6558970306623451 [Eh]
	 Singles Energy            =      -0.0000000000000000 [Eh]
	 Same-Spin Energy          =      -0.3609869229516751 [Eh]
	 Opposite-Spin Energy      =      -1.0024654660789341 [Eh]
	 Correlation Energy        =      -1.3634523890306092 [Eh]
	 Total Energy              =    -455.0193494196929578 [Eh]
	 SCS Total Energy          =    -454.9791845642743056 [Eh]
  @DF-RHF Final Energy:  -453.65588519479979
    Total Energy =                       -453.6558851947997937
  @DF-RHF Final Energy:  -453.65590742919414
    Total Energy =                       -453.6559074291941442
  @DF-RHF Final Energy:  -453.65588553167134
    Total Energy =                       -453.6558855316712879
  @DF-RHF Final Energy:  -453.65590783180812
    Total Energy =                       -453.6559078318081220
  @DF-RHF Final Energy:  -453.65591656078271
    Total Energy =                       -453.6559165607827708
  @DF-RHF Final Energy:  -453.65587597516088
    Total Energy =                       -453.6558759751608250
  @DF-RHF Final Energy:  -453.65587938245221
    Total Energy =                       -453.6558793824522127
  @DF-RHF Final Energy:  -453.65591418460855
    Total Energy =                       -453.6559141846084913
  @DF-RHF Final Energy:  -453.65592700563343
    Total Energy =                       -453.6559270056334299
  @DF-RHF Final Energy:  -453.65586675388607
    Total Energy =                       -453.6558667538861300
  @DF-RHF Final Energy:  -453.65585325487348
    Total Energy =                       -453.6558532548734775
  @DF-RHF Final Energy:  -453.65594011283861
    Total Energy =                       -453.6559401128386071
  @DF-RHF Final Energy:  -453.65590100142566
    Total Energy =                       -453.6559010014256046
  @DF-RHF Final Energy:  -453.65589243104392
    Total Energy =                       -453.6558924310439807
  @DF-RHF Final Energy:  -453.65585986000167
    Total Energy =                       -453.6558598600016694
  @DF-RHF Final Energy:  -453.65593226112594
    Total Energy =                       -453.6559322611259404
  @DF-RHF Final Energy:  -453.65589361753536
    Total Energy =                       -453.6558936175354120
  @DF-RHF Final Energy:  -453.65589856716281
    Total Energy =                       -453.6558985671628079
  @DF-RHF Final Energy:  -453.65586212521544
    Total Energy =                       -453.6558621252154353
  @DF-RHF Final Energy:  -453.65589427217560
    Total Energy =                       -453.6558942721756011
  @DF-RHF Final Energy:  -453.65588020230553
    Total Energy =                       -453.6558802023055250
  @DF-RHF Final Energy:  -453.65591179769837
    Total Energy =                       -453.6559117976984226
  @DF-RHF Final Energy:  -453.65587659225446
    Total Energy =                       -453.6558765922544580
  @DF-RHF Final Energy:  -453.65591600638118
    Total Energy =                       -453.6559160063811760
  @DF-RHF Final Energy:  -453.65589506862796
    Total Energy =                       -453.6558950686279559
  @DF-RHF Final Energy:  -453.65589811546084
    Total Energy =                       -453.6558981154609000
  @DF-RHF Final Energy:  -453.65589564656051
    Total Energy =                       -453.6558956465604524
  @DF-RHF Final Energy:  -453.65589206330043
    Total Energy =                       -453.6558920633004846
  @DF-RHF Final Energy:  -453.65592015809773
    Total Energy =                       -453.6559201580977287
  @DF-RHF Final Energy:  -453.65586949632132
    Total Energy =                       -453.6558694963213156
  @DF-RHF Final Energy:  -453.65590990053278
    Total Energy =                       -453.6559099005327198
  @DF-RHF Final Energy:  -453.65587817510601
    Total Energy =                       -453.6558781751059541
  @DF-RHF Final Energy:  -453.65591379962893
    Total Energy =                       -453.6559137996289337
  @DF-RHF Final Energy:  -453.65587442938386
    Total Energy =                       -453.6558744293838572
  @DF-RHF Final Energy:  -453.65585396637186
    Total Energy =                       -453.6558539663718648
  @DF-RHF Final Energy:  -453.65593348012089
    Total Energy =                       -453.6559334801208934
  @DF-RHF Final Energy:  -453.65584601115438
    Total Energy =                       -453.6558460111543809
  @DF-RHF Final Energy:  -453.65594109590535
    Total Energy =                       -453.6559410959052911
    Molecular point group: c1
  Charge       = 0
  Multiplicity = 1
  Basis Set: 6-31+G(D)
    Blend: 6-31+G(D)
  Basis Set: (6-31+G(D) AUX)
    Blend: HEAVY-AUG-CC-PVDZ-JKFIT

    Orbital Energies [Eh]
    ---------------------

    Doubly Occupied:

       1A    -20.627604     2A    -20.545670     3A    -15.696838
       4A    -15.513962     5A    -11.390531     6A    -11.366300
       7A    -11.296568     8A    -11.267345     9A    -11.220196
      10A     -1.485783    11A     -1.350388    12A     -1.229445
      13A     -1.163764    14A     -1.077627    15A     -0.976557
      16A     -0.913514    17A     -0.837762    18A     -0.762079
      19A     -0.728472    20A     -0.699502    21A     -0.678266
      22A     -0.632309    23A     -0.618062    24A     -0.612792
      25A     -0.592569    26A     -0.588897    27A     -0.576901
      28A     -0.567940    29A     -0.534644    30A     -0.528411
      31A     -0.493786    32A     -0.456869    33A     -0.439189
      34A     -0.379988    35A     -0.336792

  @DF-RHF Final Energy:  -453.65589703438070

   => Energetics <=

    Nuclear Repulsion Energy =            484.6791834740877789
    One-Electron Energy =               -1580.2955201279787616
    Two-Electron Energy =                 641.9604396195103391
    Total Energy =                       -453.6558970343807005

  Dipole Moment: [D]
     X:    -5.8078      Y:    -0.0149      Z:     3.7306     Total:     6.9027

  Basis Set: (6-31+G(D) AUX)
    Blend: HEAVY-AUG-CC-PVDZ-RI
    Molecular point group: c1

    Geometry (in Angstrom), charge = 0, multiplicity = 1:

       Center              X                  Y                   Z               Mass
    ------------   -----------------  -----------------  -----------------  -----------------
         C            0.811580336497    -0.124634181555    -0.260510086364    12.000000000000
         O           -0.364471495023     0.767971569374    -0.798959571635    15.994914619560
         C           -1.568302374920    -0.333362835762     0.729817345686    12.000000000000
         H           -1.975322286299    -0.307097463287     1.740649404246     1.007825032070
         N           -1.253830822057     0.843192549785     0.235858782153    14.003074004780
         O            0.499825810587    -0.734344144268     0.810883157421    15.994914619560
         N            1.795452632562    -0.029413844184    -1.067968023524    14.003074004780
         C           -1.063160988176     2.027823787532     1.069913515338    12.000000000000
         H           -1.167983393922     2.902719484811     0.429114500978     1.007825032070
         H           -1.826213365913     2.036934509191     1.849983007916     1.007825032070
         H           -0.058645787040     1.994040324688     1.502194332139     1.007825032070
         C            2.945515185481    -0.862535846558    -0.704572726705    12.000000000000
         H            3.531243081885    -1.047657558084    -1.607806122951     1.007825032070
         H            3.587029276640    -0.340716622580     0.016089390371     1.007825032070
         H            2.646880975375    -1.822507507368    -0.263330463882     1.007825032070
         C           -1.848673313920    -1.527890094426    -0.110108022860    12.000000000000
         H           -1.521507165763    -2.424552992305     0.419907730297     1.007825032070
         H           -2.933880463659    -1.593259477446    -0.266489000101     1.007825032070
         H           -1.346128067338    -1.467786969069    -1.074905430339     1.007825032070

  Basis Set: 6-31+G(D)
    Blend: 6-31+G(D)
  Basis Set: (6-31+G(D) AUX)
    Blend: HEAVY-AUG-CC-PVDZ-JKFIT
  Basis Set: (6-31+G(D) AUX)
    Blend: HEAVY-AUG-CC-PVDZ-JKFIT
	 Reference Energy          =    -453.6558970343807005 [Eh]
	 Singles Energy            =      -0.0000000000000000 [Eh]
	 Same-Spin Energy          =      -0.3609869225509804 [Eh]
	 Opposite-Spin Energy      =      -1.0024654654284066 [Eh]
	 Correlation Energy        =      -1.3634523879793869 [Eh]
	 Total Energy              =    -455.0193494223601078 [Eh]

	 ================> DF-SCS-MP2 Energies <==================
	-----------------------------------------------------------
	 SCS Same-Spin Scale       =       0.3333333333333333 [-]
	 SCS Opposite-Spin Scale   =       1.2000000000000000 [-]
	 SCS Same-Spin Energy      =      -0.1203289741836601 [Eh]
	 SCS Opposite-Spin Energy  =      -1.2029585585140878 [Eh]
	 SCS Correlation Energy    =      -1.3232875326977480 [Eh]
	 SCS Total Energy          =    -454.9791845670784483 [Eh]
	-----------------------------------------------------------

  -Total Gradient:
     Atom            X                  Y                   Z
    ------   -----------------  -----------------  -----------------
       1        0.000051492659    -0.000042251412     0.000000826415
       2       -0.000011573104     0.000033086231    -0.000018644730
       3        0.000009546716    -0.000009240228     0.000022902464
       4       -0.000007710389     0.000001754981    -0.000002375071
       5        0.000000663598    -0.000003403806    -0.000004175265
       6       -0.000014897869     0.000010501604    -0.000001215905
       7       -0.000020276360     0.000013652773     0.000014038258
       8        0.000002722012    -0.000003431903    -0.000001436604
       9       -0.000000905571    -0.000001248198    -0.000002451777
      10       -0.000000212527    -0.000004495804    -0.000002219923
      11       -0.000001815757    -0.000003602302    -0.000001551489
      12        0.000017398575    -0.000011121183     0.000001384765
      13       -0.000004403904    -0.000000617851    -0.000004677117
      14       -0.000008624505     0.000008946988     0.000001190631
      15       -0.000009852261     0.000004069868    -0.000002797185
      16       -0.000004766656     0.000003346727    -0.000002095900
      17        0.000000396691     0.000002304203     0.000001078005
      18        0.000002180404     0.000000574628     0.000001880162
      19        0.000000638255     0.000001174684     0.000000340264

  Vibration                       1                   8                   9
  Freq [cm^-1]                387.8759i            62.0598             74.9357
  Irrep                           A                   A                   A
  Reduced mass [u]              5.5111              1.2437              2.4797
  Force const [mDyne/A]        -0.4885              0.0028              0.0082

  Vibration                       10                  11                  12
  Freq [cm^-1]                 162.9158            192.3121            211.0282
  Irrep                           A                   A                   A
  Reduced mass [u]              3.2996              1.1208              1.0608
  Force const [mDyne/A]         0.0516              0.0244              0.0278

  Vibration                       13                  14                  15
  Freq [cm^-1]                 221.5392            235.2387            283.7143
  Irrep                           A                   A                   A
  Reduced mass [u]              3.0869              2.9691              3.2649
  Force const [mDyne/A]         0.0893              0.0968              0.1548

  Vibration                       16                  17                  18
  Freq [cm^-1]                 290.9168            391.4968            464.1075
  Irrep                           A                   A                   A
  Reduced mass [u]              3.0201              5.8481              3.9305
  Force const [mDyne/A]         0.1506              0.5281              0.4988

  Vibration                       19                  20                  21
  Freq [cm^-1]                 559.3917            574.0955            643.9284
  Irrep                           A                   A                   A
  Reduced mass [u]              6.9842              4.0358              6.5050
  Force const [mDyne/A]         1.2877              0.7837              1.5892

  Vibration                       22                  23                  24
  Freq [cm^-1]                 694.5806            790.5999            877.2687
  Irrep                           A                   A                   A
  Reduced mass [u]             10.7342              5.8355              2.3775
  Force const [mDyne/A]         3.0512              2.1490              1.0780

  Vibration                       25                  26                  27
  Freq [cm^-1]                 930.7965           1000.9431           1017.3029
  Irrep                           A                   A                   A
  Reduced mass [u]              1.1397              4.4876              2.9513
  Force const [mDyne/A]         0.5818              2.6490              1.7996

  Vibration                       28                  29                  30
  Freq [cm^-1]                1090.8047           1140.3581           1144.8115
  Irrep                           A                   A                   A
  Reduced mass [u]              1.6119              1.8303              1.3252
  Force const [mDyne/A]         1.1300              1.4024              1.0233

  Vibration                       31                  32                  33
  Freq [cm^-1]                1161.6561           1170.9903           1184.4870
  Irrep                           A                   A                   A
  Reduced mass [u]              1.6004              1.8348              1.7097
  Force const [mDyne/A]         1.2724              1.4823              1.4133

  Vibration                       34                  35                  36
  Freq [cm^-1]                1234.4164           1283.9122           1410.7131
  Irrep                           A                   A                   A
  Reduced mass [u]              2.3869              3.8516              1.4190
  Force const [mDyne/A]         2.1429              3.7408              1.6638

  Vibration                       37                  38                  39
  Freq [cm^-1]                1461.8333           1478.5715           1483.8615
  Irrep                           A                   A                   A
  Reduced mass [u]              1.3499              1.2018              1.1798
  Force const [mDyne/A]         1.6996              1.5479              1.5305

  Vibration                       40                  41                  42
  Freq [cm^-1]                1513.7653           1519.4255           1522.3754
  Irrep                           A                   A                   A
  Reduced mass [u]              1.0721              1.0483              1.0463
  Force const [mDyne/A]         1.4474              1.4259              1.4288

  Vibration                       43                  44                  45
  Freq [cm^-1]                1536.7830           1541.2849           1549.4974
  Irrep                           A                   A                   A
  Reduced mass [u]              1.0486              1.0561              1.0486
  Force const [mDyne/A]         1.4590              1.4782              1.4834

  Vibration                       46                  47                  48
  Freq [cm^-1]                1699.3670           1820.5726           3065.2994
  Irrep                           A                   A                   A
  Reduced mass [u]              5.1171             10.7749              1.0348
  Force const [mDyne/A]         8.7066             21.0417              5.7285

  Vibration                       49                  50                  51
  Freq [cm^-1]                3090.2772           3113.2397           3139.7012
  Irrep                           A                   A                   A
  Reduced mass [u]              1.0453              1.0325              1.1035
  Force const [mDyne/A]         5.8812              5.8960              6.4090

  Vibration                       52                  53                  54
  Freq [cm^-1]                3185.1446           3189.6350           3215.3929
  Irrep                           A                   A                   A
  Reduced mass [u]              1.1011              1.0899              1.1000
  Force const [mDyne/A]         6.5815              6.5330              6.7005

  Vibration                       55                  56                  57
  Freq [cm^-1]                3221.0178           3243.3853           3246.0240
  Irrep                           A                   A                   A
  Reduced mass [u]              1.0983              1.1037              1.1058
  Force const [mDyne/A]         6.7137              6.8410              6.8651

  ==> Thermochemistry Components <==

  Entropy, S
    Electronic S            0.000 [cal/(mol K)]        0.000 [J/(mol K)]       0.00000000 [mEh/K] (multiplicity = 1)
    Translational S        40.502 [cal/(mol K)]      169.460 [J/(mol K)]       0.06454374 [mEh/K] (mol. weight = 130.0742 [u], P = 101325.00 [Pa])
    Rotational S           28.944 [cal/(mol K)]      121.101 [J/(mol K)]       0.04612479 [mEh/K] (symmetry no. = 1)
    Vibrational S          26.566 [cal/(mol K)]      111.150 [J/(mol K)]       0.04233493 [mEh/K]
  Total S                  96.011 [cal/(mol K)]      401.711 [J/(mol K)]       0.15300346 [mEh/K]
  Correction S              0.000 [cal/(mol K)]        0.000 [J/(mol K)]       0.00000000 [mEh/K]

  Constant volume heat capacity, Cv
    Electronic Cv           0.000 [cal/(mol K)]        0.000 [J/(mol K)]       0.00000000 [mEh/K]
    Translational Cv        2.981 [cal/(mol K)]       12.472 [J/(mol K)]       0.00475022 [mEh/K]
    Rotational Cv           2.981 [cal/(mol K)]       12.472 [J/(mol K)]       0.00475022 [mEh/K]
    Vibrational Cv         28.290 [cal/(mol K)]      118.363 [J/(mol K)]       0.04508224 [mEh/K]
  Total Cv                 34.251 [cal/(mol K)]      143.307 [J/(mol K)]       0.05458269 [mEh/K]
  Correction Cv             0.000 [cal/(mol K)]        0.000 [J/(mol K)]       0.00000000 [mEh/K]

  Constant pressure heat capacity, Cp
    Electronic Cp           0.000 [cal/(mol K)]        0.000 [J/(mol K)]       0.00000000 [mEh/K]
    Translational Cp        4.968 [cal/(mol K)]       20.786 [J/(mol K)]       0.00791704 [mEh/K]
    Rotational Cp           2.981 [cal/(mol K)]       12.472 [J/(mol K)]       0.00475022 [mEh/K]
    Vibrational Cp         28.290 [cal/(mol K)]      118.363 [J/(mol K)]       0.04508224 [mEh/K]
  Total Cp                 36.238 [cal/(mol K)]      151.621 [J/(mol K)]       0.05774950 [mEh/K]
  Correction Cp             0.000 [cal/(mol K)]        0.000 [J/(mol K)]       0.00000000 [mEh/K]

  ==> Thermochemistry Energy Analysis <==

  Raw electronic energy, E0
  Total E0, Electronic energy at well bottom at 0 [K]                 -455.01934942 [Eh]

  Zero-point energy, ZPE_vib = Sum_i nu_i / 2
    Electronic ZPE          0.000 [kcal/mol]        0.000 [kJ/mol]       0.00000000 [Eh]
    Translational ZPE       0.000 [kcal/mol]        0.000 [kJ/mol]       0.00000000 [Eh]
    Rotational ZPE          0.000 [kcal/mol]        0.000 [kJ/mol]       0.00000000 [Eh]
    Vibrational ZPE        99.123 [kcal/mol]      414.732 [kJ/mol]       0.15796304 [Eh]       34668.876 [cm^-1]
  Correction ZPE           99.123 [kcal/mol]      414.732 [kJ/mol]       0.15796304 [Eh]       34668.876 [cm^-1]
  Total ZPE, Electronic energy at 0 [K]                               -454.86138638 [Eh]

  Thermal Energy, E (includes ZPE)
    Electronic E            0.000 [kcal/mol]        0.000 [kJ/mol]       0.00000000 [Eh]
    Translational E         0.889 [kcal/mol]        3.718 [kJ/mol]       0.00141628 [Eh]
    Rotational E            0.889 [kcal/mol]        3.718 [kJ/mol]       0.00141628 [Eh]
    Vibrational E         103.442 [kcal/mol]      432.802 [kJ/mol]       0.16484550 [Eh]
  Correction E            105.220 [kcal/mol]      440.239 [kJ/mol]       0.16767805 [Eh]
  Total E, Electronic energy at  298.15 [K]                           -454.85167137 [Eh]

  Enthalpy, H_trans = E_trans + k_B * T
    Electronic H            0.000 [kcal/mol]        0.000 [kJ/mol]       0.00000000 [Eh]
    Translational H         1.481 [kcal/mol]        6.197 [kJ/mol]       0.00236046 [Eh]
    Rotational H            0.889 [kcal/mol]        3.718 [kJ/mol]       0.00141628 [Eh]
    Vibrational H         103.442 [kcal/mol]      432.802 [kJ/mol]       0.16484550 [Eh]
  Correction H            105.812 [kcal/mol]      442.718 [kJ/mol]       0.16862224 [Eh]
  Total H, Enthalpy at  298.15 [K]                                    -454.85072718 [Eh]

  Gibbs free energy, G = H - T * S
    Electronic G            0.000 [kcal/mol]        0.000 [kJ/mol]       0.00000000 [Eh]
    Translational G       -10.594 [kcal/mol]      -44.327 [kJ/mol]      -0.01688325 [Eh]
    Rotational G           -7.741 [kcal/mol]      -32.388 [kJ/mol]      -0.01233583 [Eh]
    Vibrational G          95.522 [kcal/mol]      399.662 [kJ/mol]       0.15222334 [Eh]
  Correction G             77.186 [kcal/mol]      322.948 [kJ/mol]       0.12300426 [Eh]
  Total G, Free enthalpy at  298.15 [K]                               -454.89634517 [Eh]

*** Psi4 exiting successfully. Buy a developer a beer!
