                               Psi4 1.2.1 release

  ==> Input File <==

--------------------------------------------------------------------------

molecule{
0 1
 C   -2.085177798366   -0.186361177001    0.339535588480
 O   -2.162714282686   -0.074922305570    1.546473264902
 O   -2.756985096527   -0.143008245371   -0.684487380548
 N   -0.595962671195   -0.459929883615   -0.305357949620
 H   -0.875836477156   -0.324566892022   -1.279670242435
 H   -0.315723604169   -1.440850311016   -0.196547205376
 C    0.486394086376    0.434129654617    0.118580248687
 H    0.358516515905    0.571935062952    1.201860297122
 C    1.797722616567   -0.307840303966   -0.091816742175
 O    1.874182153940   -1.488143774431   -0.367665045604
 O    2.862916648733    0.485403278782    0.098768495628
 H    3.665504619501   -0.057129473285   -0.006502863827
 C    0.405036580729    1.791878468416   -0.586017792354
 H   -0.563368530251    2.259979898661   -0.386089395980
 H    1.193571257497    2.450809747770   -0.216547668223
 H    0.524421346103    1.682859196933   -1.670357854848
}

set basis 6-31+G*
set_num_threads(16)
e, wfn = properties('mp2', return_wfn=True)

d = wfn.Da().to_array()
s = wfn.S().to_array()
c = wfn.Ca().to_array()
occs = c.T.dot(s.dot(d).dot(s).dot(c))

molden(wfn, 'mp2.molden', density_a = psi4.core.Matrix.from_array(occs))
--------------------------------------------------------------------------

    Molecular point group: c1
  Charge       = 0
  Multiplicity = 1
  Basis Set: 6-31+G*
    Blend: 6-31+G*
  Basis Set: (6-31+G* AUX)
    Blend: HEAVY-AUG-CC-PVDZ-JKFIT

    Orbital Energies [Eh]
    ---------------------

    Doubly Occupied:

       1A    -20.675616     2A    -20.618354     3A    -20.554179
       4A    -20.541146     5A    -15.680503     6A    -11.448030
       7A    -11.414218     8A    -11.344940     9A    -11.276006
      10A     -1.519737    11A     -1.435650    12A     -1.416772
      13A     -1.344380    14A     -1.298401    15A     -1.089023
      16A     -0.962973    17A     -0.869240    18A     -0.803904
      19A     -0.776271    20A     -0.753600    21A     -0.730860
      22A     -0.704225    23A     -0.673106    24A     -0.668777
      25A     -0.635432    26A     -0.632528    27A     -0.603978
      28A     -0.595447    29A     -0.576259    30A     -0.564725
      31A     -0.530140    32A     -0.503932    33A     -0.455391
      34A     -0.447061    35A     -0.429602

  @DF-RHF Final Energy:  -509.46999949683999

   => Energetics <=

    Nuclear Repulsion Energy =            465.4359065187503006
    One-Electron Energy =               -1620.6629984560872799
    Two-Electron Energy =                 645.7570924404969901
    Total Energy =                       -509.4699994968400460
  Basis Set: (6-31+G* AUX)
    Blend: HEAVY-AUG-CC-PVDZ-RI
    Molecular point group: c1

    Geometry (in Angstrom), charge = 0, multiplicity = 1:

       Center              X                  Y                   Z               Mass
    ------------   -----------------  -----------------  -----------------  -----------------
         C           -2.085177798366    -0.186361177001     0.339535588480    12.000000000000
         O           -2.162714282686    -0.074922305570     1.546473264902    15.994914619560
         O           -2.756985096527    -0.143008245371    -0.684487380548    15.994914619560
         N           -0.595962671195    -0.459929883615    -0.305357949620    14.003074004780
         H           -0.875836477156    -0.324566892022    -1.279670242435     1.007825032070
         H           -0.315723604169    -1.440850311016    -0.196547205376     1.007825032070
         C            0.486394086376     0.434129654617     0.118580248687    12.000000000000
         H            0.358516515905     0.571935062952     1.201860297122     1.007825032070
         C            1.797722616567    -0.307840303966    -0.091816742175    12.000000000000
         O            1.874182153940    -1.488143774431    -0.367665045604    15.994914619560
         O            2.862916648733     0.485403278782     0.098768495628    15.994914619560
         H            3.665504619501    -0.057129473285    -0.006502863827     1.007825032070
         C            0.405036580729     1.791878468416    -0.586017792354    12.000000000000
         H           -0.563368530251     2.259979898661    -0.386089395980     1.007825032070
         H            1.193571257497     2.450809747770    -0.216547668223     1.007825032070
         H            0.524421346103     1.682859196933    -1.670357854848     1.007825032070

  Basis Set: 6-31+G*
    Blend: 6-31+G*
  Basis Set: (6-31+G* AUX)
    Blend: HEAVY-AUG-CC-PVDZ-JKFIT
	 Reference Energy          =    -509.4699994968399892 [Eh]
	 Singles Energy            =      -0.0000000000000000 [Eh]
	 Same-Spin Energy          =      -0.3941869995525447 [Eh]
	 Opposite-Spin Energy      =      -1.0585768352183138 [Eh]
	 Correlation Energy        =      -1.4527638347708585 [Eh]
	 Total Energy              =    -510.9227633316108381 [Eh]

	 ================> DF-SCS-MP2 Energies <==================
	-----------------------------------------------------------
	 SCS Same-Spin Scale       =       0.3333333333333333 [-]
	 SCS Opposite-Spin Scale   =       1.2000000000000000 [-]
	 SCS Same-Spin Energy      =      -0.1313956665175149 [Eh]
	 SCS Opposite-Spin Energy  =      -1.2702922022619765 [Eh]
	 SCS Correlation Energy    =      -1.4016878687794914 [Eh]
	 SCS Total Energy          =    -510.8716873656194934 [Eh]
	-----------------------------------------------------------

  Dipole Moment: [D]
     X:     7.0486      Y:     0.9737      Z:    -1.8211     Total:     7.3449

*** Psi4 exiting successfully. Buy a developer a beer!
