                               Psi4 1.2.1 release

  ==> Input File <==

--------------------------------------------------------------------------

molecule{
0 1
 C   -2.673244057908   -0.082318217919    0.458617178709
 O   -2.260825663376   -0.024469656389    1.555775498821
 O   -3.226694416170   -0.106759285813   -0.573686474857
 N   -0.413172935569   -0.549742625917   -0.537657243233
 H   -0.422911968933   -0.475046823001   -1.554686471932
 H   -0.187557266998   -1.522050542984   -0.328636980750
 C    0.610045950900    0.323683561222    0.026873245455
 H    0.422963899988    0.395506131470    1.109522119474
 C    1.995900681337   -0.310793673179   -0.098433291142
 O    2.183727573787   -1.481504549728   -0.359921864269
 O    3.006834241051    0.549290797553    0.161582640827
 H    3.840356291640    0.042289582942    0.111710083199
 C    0.516043451064    1.733740248583   -0.567721881691
 H   -0.487450307160    2.135509046043   -0.396987995601
 H    1.245548961244    2.404966505686   -0.108586091986
 H    0.699620989780    1.718073090592   -1.649470476555
}

set basis 6-31+G*
set_num_threads(16)
e, wfn = properties('mp2', return_wfn=True)

d = wfn.Da().to_array()
s = wfn.S().to_array()
c = wfn.Ca().to_array()
occs = c.T.dot(s.dot(d).dot(s).dot(c))

molden(wfn, 'mp2.molden', density_a = psi4.core.Matrix.from_array(occs))
--------------------------------------------------------------------------

    Molecular point group: c1
  Charge       = 0
  Multiplicity = 1
  Basis Set: 6-31+G*
    Blend: 6-31+G*
  Basis Set: (6-31+G* AUX)
    Blend: HEAVY-AUG-CC-PVDZ-JKFIT

    Orbital Energies [Eh]
    ---------------------

    Doubly Occupied:

       1A    -20.643599     2A    -20.642869     3A    -20.642557
       4A    -20.581071     5A    -15.573529     6A    -11.460732
       7A    -11.407492     8A    -11.298005     9A    -11.245002
      10A     -1.506989    11A     -1.481760    12A     -1.451350
      13A     -1.378161    14A     -1.215975    15A     -1.032623
      16A     -0.920281    17A     -0.816645    18A     -0.778766
      19A     -0.721614    20A     -0.717939    21A     -0.715216
      22A     -0.696666    23A     -0.686411    24A     -0.683139
      25A     -0.641327    26A     -0.618755    27A     -0.610198
      28A     -0.564874    29A     -0.538598    30A     -0.528484
      31A     -0.521817    32A     -0.518947    33A     -0.494146
      34A     -0.470070    35A     -0.425963

  @DF-RHF Final Energy:  -509.50799586991468

   => Energetics <=

    Nuclear Repulsion Energy =            442.8651139021627614
    One-Electron Energy =               -1576.2830781788418335
    Two-Electron Energy =                 623.9099684067642784
    Total Energy =                       -509.5079958699146800
  Basis Set: (6-31+G* AUX)
    Blend: HEAVY-AUG-CC-PVDZ-RI
    Molecular point group: c1

    Geometry (in Angstrom), charge = 0, multiplicity = 1:

       Center              X                  Y                   Z               Mass
    ------------   -----------------  -----------------  -----------------  -----------------
         C           -2.673244057908    -0.082318217919     0.458617178709    12.000000000000
         O           -2.260825663376    -0.024469656389     1.555775498821    15.994914619560
         O           -3.226694416170    -0.106759285813    -0.573686474857    15.994914619560
         N           -0.413172935569    -0.549742625917    -0.537657243233    14.003074004780
         H           -0.422911968933    -0.475046823001    -1.554686471932     1.007825032070
         H           -0.187557266998    -1.522050542984    -0.328636980750     1.007825032070
         C            0.610045950900     0.323683561222     0.026873245455    12.000000000000
         H            0.422963899988     0.395506131470     1.109522119474     1.007825032070
         C            1.995900681337    -0.310793673179    -0.098433291142    12.000000000000
         O            2.183727573787    -1.481504549728    -0.359921864269    15.994914619560
         O            3.006834241051     0.549290797553     0.161582640827    15.994914619560
         H            3.840356291640     0.042289582942     0.111710083199     1.007825032070
         C            0.516043451064     1.733740248583    -0.567721881691    12.000000000000
         H           -0.487450307160     2.135509046043    -0.396987995601     1.007825032070
         H            1.245548961244     2.404966505686    -0.108586091986     1.007825032070
         H            0.699620989780     1.718073090592    -1.649470476555     1.007825032070

  Basis Set: 6-31+G*
    Blend: 6-31+G*
  Basis Set: (6-31+G* AUX)
    Blend: HEAVY-AUG-CC-PVDZ-JKFIT
	 Reference Energy          =    -509.5079958699146800 [Eh]
	 Singles Energy            =      -0.0000000000000000 [Eh]
	 Same-Spin Energy          =      -0.3895053219687297 [Eh]
	 Opposite-Spin Energy      =      -1.0547136756002726 [Eh]
	 Correlation Energy        =      -1.4442189975690023 [Eh]
	 Total Energy              =    -510.9522148674836899 [Eh]

	 ================> DF-SCS-MP2 Energies <==================
	-----------------------------------------------------------
	 SCS Same-Spin Scale       =       0.3333333333333333 [-]
	 SCS Opposite-Spin Scale   =       1.2000000000000000 [-]
	 SCS Same-Spin Energy      =      -0.1298351073229099 [Eh]
	 SCS Opposite-Spin Energy  =      -1.2656564107203272 [Eh]
	 SCS Correlation Energy    =      -1.3954915180432370 [Eh]
	 SCS Total Energy          =    -510.9034873879579095 [Eh]
	-----------------------------------------------------------

  Dipole Moment: [D]
     X:     2.0280      Y:     1.1048      Z:    -0.4884     Total:     2.3605

*** Psi4 exiting successfully. Buy a developer a beer!
