                               Psi4 1.2.1 release

  ==> Input File <==

--------------------------------------------------------------------------
molecule{
0 1
    C           -0.219993264371    -1.187271518631     0.109434818000
    O           -1.027167200777    -0.942524939525    -0.749553468223
    H            0.156461448716    -0.511696989311     2.079702362262
    H           -1.557735802534    -0.928735135233     1.759214875898
    H            1.010850663307     2.492411731940    -1.585906267880
    C            1.196871045378     1.553194932012    -1.056620272238
    H            0.918060106051     0.716345306706    -1.705236936311
    H            2.260277788086     1.490112308567    -0.828780344705
    O            0.505121246394     1.502764129763     0.180832573662
    H           -0.437346124407     1.489841204064    -0.007656322856
    C           -0.520550037497    -1.206856721791     1.577547065874
    H           -0.327079450169    -2.207475178361     1.974091164677
    H            0.828343240836    -1.419356915356    -0.165022942350
}

set{
   basis 6-311++G(d,p)
   freeze_core True
   cubeprop_tasks ['ESP']
}

set_num_threads(32)
e, wfn = energy('m06-2x', return_wfn=True)
cubeprop(wfn)
--------------------------------------------------------------------------

    Molecular point group: c1

    Geometry (in Angstrom), charge = 0, multiplicity = 1:

       Center              X                  Y                   Z               Mass
    ------------   -----------------  -----------------  -----------------  -----------------
         C           -0.219993264371    -1.187271518631     0.109434818000    12.000000000000
         O           -1.027167200777    -0.942524939525    -0.749553468223    15.994914619560
         H            0.156461448716    -0.511696989311     2.079702362262     1.007825032070
         H           -1.557735802534    -0.928735135233     1.759214875898     1.007825032070
         H            1.010850663307     2.492411731940    -1.585906267880     1.007825032070
         C            1.196871045378     1.553194932012    -1.056620272238    12.000000000000
         H            0.918060106051     0.716345306706    -1.705236936311     1.007825032070
         H            2.260277788086     1.490112308567    -0.828780344705     1.007825032070
         O            0.505121246394     1.502764129763     0.180832573662    15.994914619560
         H           -0.437346124407     1.489841204064    -0.007656322856     1.007825032070
         C           -0.520550037497    -1.206856721791     1.577547065874    12.000000000000
         H           -0.327079450169    -2.207475178361     1.974091164677     1.007825032070
         H            0.828343240836    -1.419356915356    -0.165022942350     1.007825032070

  Charge       = 0
  Multiplicity = 1
  Basis Set: 6-311++G(D,P)
    Blend: 6-311++G(D,P)
  Basis Set: (6-311++G(D,P) AUX)
    Blend: AUG-CC-PVTZ-JKFIT

    Orbital Energies [Eh]
    ---------------------

    Doubly Occupied:

       1A    -19.627633     2A    -19.626491     3A    -10.636575
       4A    -10.579145     5A    -10.543319     6A     -1.181707
       7A     -1.148424     8A     -0.850471     9A     -0.779045
      10A     -0.668240    11A     -0.590459    12A     -0.563812
      13A     -0.531599    14A     -0.518140    15A     -0.508514
      16A     -0.500451    17A     -0.465032    18A     -0.435850
      19A     -0.413813    20A     -0.358194    21A     -0.334221

  @DF-RKS Final Energy:  -269.51735218512886

   => Energetics <=

    Nuclear Repulsion Energy =            178.9442524877472067
    One-Electron Energy =                -720.7745551540524502
    Two-Electron Energy =                 289.8267708673752736
    DFT Exchange-Correlation Energy =     -17.5138203861988870
    Empirical Dispersion Energy =           0.0000000000000000
    VV10 Nonlocal Energy =                  0.0000000000000000
    Total Energy =                       -269.5173521851288569

  Dipole Moment: [D]
     X:     1.0157      Y:    -0.3693      Z:     0.7600     Total:     1.3212

  Basis Set: 6-311++G(D,P)
    Blend: 6-311++G(D,P)
*** Psi4 exiting successfully. Buy a developer a beer!
