                               Psi4 1.2.1 release

  ==> Input File <==

--------------------------------------------------------------------------

molecule{
0 1
 C   -2.163421371171   -0.168903311605    0.329920943385
 O   -2.135986332564   -0.077807349701    1.533540933284
 O   -2.832807511627   -0.137163593227   -0.676367682525
 N   -0.553285906535   -0.476571135052   -0.315141774899
 H   -0.715864510871   -0.409670944917   -1.320640699607
 H   -0.287648814224   -1.445079240464   -0.116954022930
 C    0.503826371173    0.432010254089    0.126576639182
 H    0.369352572121    0.570228328947    1.208767660002
 C    1.815663553810   -0.304239476469   -0.085166720190
 O    1.884664467775   -1.484214297107   -0.366981768196
 O    2.880924289787    0.487360043268    0.100857504212
 H    3.685547084447   -0.053642972063   -0.008348398462
 C    0.407785349391    1.788747548876   -0.581283335040
 H   -0.567132058145    2.243656574263   -0.382622287348
 H    1.187432093296    2.460857274875   -0.216167539222
 H    0.527162176319    1.679289942740   -1.665852717884
}

set basis 6-31+G*
set_num_threads(16)
e, wfn = properties('mp2', return_wfn=True)

d = wfn.Da().to_array()
s = wfn.S().to_array()
c = wfn.Ca().to_array()
occs = c.T.dot(s.dot(d).dot(s).dot(c))

molden(wfn, 'mp2.molden', density_a = psi4.core.Matrix.from_array(occs))
--------------------------------------------------------------------------

    Molecular point group: c1
  Charge       = 0
  Multiplicity = 1
  Basis Set: 6-31+G*
    Blend: 6-31+G*
  Basis Set: (6-31+G* AUX)
    Blend: HEAVY-AUG-CC-PVDZ-JKFIT

    Orbital Energies [Eh]
    ---------------------

    Doubly Occupied:

       1A    -20.670548     2A    -20.611084     3A    -20.566640
       4A    -20.560012     5A    -15.657958     6A    -11.439897
       7A    -11.424534     8A    -11.334901     9A    -11.270658
      10A     -1.513761    11A     -1.442506    12A     -1.410954
      13A     -1.361469    14A     -1.285596    15A     -1.076517
      16A     -0.955546    17A     -0.858789    18A     -0.783381
      19A     -0.763723    20A     -0.745692    21A     -0.727709
      22A     -0.692751    23A     -0.672285    24A     -0.662381
      25A     -0.646733    26A     -0.631202    27A     -0.613065
      28A     -0.590567    29A     -0.573014    30A     -0.559047
      31A     -0.524072    32A     -0.497718    33A     -0.466359
      34A     -0.447951    35A     -0.444504

  @DF-RHF Final Energy:  -509.47840780087529

   => Energetics <=

    Nuclear Repulsion Energy =            463.0023577177514653
    One-Electron Energy =               -1615.9944833252948229
    Two-Electron Energy =                 643.5137178066680690
    Total Energy =                       -509.4784078008752886
  Basis Set: (6-31+G* AUX)
    Blend: HEAVY-AUG-CC-PVDZ-RI
    Molecular point group: c1

    Geometry (in Angstrom), charge = 0, multiplicity = 1:

       Center              X                  Y                   Z               Mass
    ------------   -----------------  -----------------  -----------------  -----------------
         C           -2.163421371171    -0.168903311605     0.329920943385    12.000000000000
         O           -2.135986332564    -0.077807349701     1.533540933284    15.994914619560
         O           -2.832807511627    -0.137163593227    -0.676367682525    15.994914619560
         N           -0.553285906535    -0.476571135052    -0.315141774899    14.003074004780
         H           -0.715864510871    -0.409670944917    -1.320640699607     1.007825032070
         H           -0.287648814224    -1.445079240464    -0.116954022930     1.007825032070
         C            0.503826371173     0.432010254089     0.126576639182    12.000000000000
         H            0.369352572121     0.570228328947     1.208767660002     1.007825032070
         C            1.815663553810    -0.304239476469    -0.085166720190    12.000000000000
         O            1.884664467775    -1.484214297107    -0.366981768196    15.994914619560
         O            2.880924289787     0.487360043268     0.100857504212    15.994914619560
         H            3.685547084447    -0.053642972063    -0.008348398462     1.007825032070
         C            0.407785349391     1.788747548876    -0.581283335040    12.000000000000
         H           -0.567132058145     2.243656574263    -0.382622287348     1.007825032070
         H            1.187432093296     2.460857274875    -0.216167539222     1.007825032070
         H            0.527162176319     1.679289942740    -1.665852717884     1.007825032070

  Basis Set: 6-31+G*
    Blend: 6-31+G*
  Basis Set: (6-31+G* AUX)
    Blend: HEAVY-AUG-CC-PVDZ-JKFIT
	 Reference Energy          =    -509.4784078008752886 [Eh]
	 Singles Energy            =      -0.0000000000000000 [Eh]
	 Same-Spin Energy          =      -0.3940980066935591 [Eh]
	 Opposite-Spin Energy      =      -1.0587244201660100 [Eh]
	 Correlation Energy        =      -1.4528224268595691 [Eh]
	 Total Energy              =    -510.9312302277348294 [Eh]

	 ================> DF-SCS-MP2 Energies <==================
	-----------------------------------------------------------
	 SCS Same-Spin Scale       =       0.3333333333333333 [-]
	 SCS Opposite-Spin Scale   =       1.2000000000000000 [-]
	 SCS Same-Spin Energy      =      -0.1313660022311864 [Eh]
	 SCS Opposite-Spin Energy  =      -1.2704693041992119 [Eh]
	 SCS Correlation Energy    =      -1.4018353064303983 [Eh]
	 SCS Total Energy          =    -510.8802431073056596 [Eh]
	-----------------------------------------------------------

  Dipole Moment: [D]
     X:     6.3034      Y:     0.9714      Z:    -1.6169     Total:     6.5796

*** Psi4 exiting successfully. Buy a developer a beer!
