                               Psi4 1.2.1 release

  ==> Input File <==

--------------------------------------------------------------------------
molecule{
0 1
  C   0.21272688582111      0.36897449070993     -0.05593053342560
  O   -1.05071221119074      0.25670735711839     -0.11952560400400
  O   1.08795248414136      1.10396924856408     -0.13698280940979
  H   0.44650950316546     -0.95918578579766      0.21261454282177
  H   -0.69647666193719     -0.77046531059475      0.09982440401762
}

set{
   basis def2-svp
   freeze_core True
   opt_type ts
}

set_num_threads(32)
optimize('b3lyp')
--------------------------------------------------------------------------

    Molecular point group: c1
  Charge       = 0
  Multiplicity = 1
  Basis Set: DEF2-SVP
    Blend: DEF2-SVP
  Basis Set: (DEF2-SVP AUX)
    Blend: DEF2-SVP-JKFIT
  @DF-RKS Final Energy:  -189.52117564941008
    Total Energy =                       -189.5211756494100825
    Molecular point group: c1
  Basis Set: DEF2-SVP
    Blend: DEF2-SVP
  Basis Set: (DEF2-SVP AUX)
    Blend: DEF2-SVP-JKFIT
  Basis Set: DEF2-SVP
    Blend: DEF2-SVP
  Basis Set: (DEF2-SVP AUX)
    Blend: DEF2-SVP-JKFIT
  @DF-RKS Final Energy:  -189.53673759867388
    Total Energy =                       -189.5367375986738807
  Basis Set: DEF2-SVP
    Blend: DEF2-SVP
  Basis Set: (DEF2-SVP AUX)
    Blend: DEF2-SVP-JKFIT
  Basis Set: DEF2-SVP
    Blend: DEF2-SVP
  @DF-RKS Final Energy:  -189.50118625503563
    Total Energy =                       -189.5011862550356341
  @DF-RKS Final Energy:  -189.50480451629173
    Total Energy =                       -189.5048045162916992
  @DF-RKS Final Energy:  -189.50427716028548
    Total Energy =                       -189.5042771602854828
  @DF-RKS Final Energy:  -189.50494310704661
    Total Energy =                       -189.5049431070466142
  @DF-RKS Final Energy:  -189.50571909363686
    Total Energy =                       -189.5057190936368556
  @DF-RKS Final Energy:  -189.49984957481072
    Total Energy =                       -189.4998495748107246
  @DF-RKS Final Energy:  -189.50567853819857
    Total Energy =                       -189.5056785381985662
  Basis Set: (DEF2-SVP AUX)
    Blend: DEF2-SVP-JKFIT
  Basis Set: DEF2-SVP
    Blend: DEF2-SVP
  Basis Set: (DEF2-SVP AUX)
    Blend: DEF2-SVP-JKFIT
  @DF-RKS Final Energy:  -189.50583448174422
    Total Energy =                       -189.5058344817442162
  Basis Set: DEF2-SVP
    Blend: DEF2-SVP
  Basis Set: (DEF2-SVP AUX)
    Blend: DEF2-SVP-JKFIT
  Charge       = 0
  Multiplicity = 1
  Basis Set: DEF2-SVP
    Blend: DEF2-SVP
  Basis Set: (DEF2-SVP AUX)
    Blend: DEF2-SVP-JKFIT

    Orbital Energies [Eh]
    ---------------------

    Doubly Occupied:

       1A    -19.199175     2A    -19.192634     3A    -10.394277
       4A     -1.139834     5A     -1.082443     6A     -0.627374
       7A     -0.551889     8A     -0.506026     9A     -0.500974
      10A     -0.393852    11A     -0.358908    12A     -0.314859

  @DF-RKS Final Energy:  -189.50583676658636

   => Energetics <=

    Nuclear Repulsion Energy =             70.2765897196914580
    One-Electron Energy =                -397.5443949866913158
    Two-Electron Energy =                 156.5542717736795453
    DFT Exchange-Correlation Energy =     -18.7923032732660573
    Empirical Dispersion Energy =           0.0000000000000000
    VV10 Nonlocal Energy =                  0.0000000000000000
    Total Energy =                       -189.5058367665863557

  Dipole Moment: [D]
     X:    -0.2387      Y:    -1.5986      Z:     0.2913     Total:     1.6424

    Molecular point group: c1
  Basis Set: DEF2-SVP
    Blend: DEF2-SVP
  Basis Set: (DEF2-SVP AUX)
    Blend: DEF2-SVP-JKFIT

  -Total Gradient:
     Atom            X                  Y                   Z
    ------   -----------------  -----------------  -----------------
       1        0.000180131255    -0.000043516731     0.000063678781
       2       -0.000032709956     0.000058080066    -0.000015473045
       3       -0.000042276524     0.000077459806    -0.000043651179
       4       -0.000176178126    -0.000039443104     0.000005849787
       5        0.000117839274    -0.000047608799    -0.000008373757

  **** Optimization is complete! (in 11 steps) ****
    Final optimized geometry and variables:
    Molecular point group: c1

    Geometry (in Angstrom), charge = 0, multiplicity = 1:

    C            0.113595072843    -0.153880407652     0.037596022684
    O           -1.135961394234    -0.223379947195    -0.034588131338
    O            1.064242147389     0.524605985828    -0.028439251841
    H            0.404693854873    -1.556634791353     0.327550495378
    H           -0.619014433727    -1.391813384411     0.225090412236

*** Psi4 exiting successfully. Buy a developer a beer!
