                               Psi4 1.2.1 release

  ==> Input File <==

--------------------------------------------------------------------------
molecule{
0 1
C       -0.9490888051      0.6023292505      0.0000000000
O       -2.1457191144      0.5725768230      0.0000000000
O        0.0143838518      1.3126313941     -0.0000000000
H       -0.5930101405     -1.2414622622      0.4416875479
H       -1.9059447797     -1.0210696318      0.2936549737
}

set{
   basis 3-21G
   freeze_core True
   opt_type ts
}

set_num_threads(1)
optimize('b3lyp')
--------------------------------------------------------------------------

    Molecular point group: c1
  Charge       = 0
  Multiplicity = 1
  Basis Set: 3-21G
    Blend: 3-21G
  Basis Set: (3-21G AUX)
    Blend: DEF2-SVP-JKFIT
  @DF-RKS Final Energy:  -188.55474314669294
    Total Energy =                       -188.5547431466929424
    Molecular point group: c1
  Basis Set: 3-21G
    Blend: 3-21G
  Basis Set: (3-21G AUX)
    Blend: DEF2-SVP-JKFIT
  Basis Set: 3-21G
    Blend: 3-21G
  Basis Set: (3-21G AUX)
    Blend: DEF2-SVP-JKFIT
  @DF-RKS Final Energy:  -188.60191497346668
    Total Energy =                       -188.6019149734666769
  Basis Set: 3-21G
    Blend: 3-21G
  Basis Set: (3-21G AUX)
    Blend: DEF2-SVP-JKFIT
  Basis Set: 3-21G
    Blend: 3-21G
  @DF-RKS Final Energy:  -188.56685110629616
    Total Energy =                       -188.5668511062961556
  @DF-RKS Final Energy:  -188.55506266561918
    Total Energy =                       -188.5550626656191753
  @DF-RKS Final Energy:  -188.56692909194405
    Total Energy =                       -188.5669290919440471
  @DF-RKS Final Energy:  -188.57143209277430
    Total Energy =                       -188.5714320927743017
  @DF-RKS Final Energy:  -188.57188380996192
    Total Energy =                       -188.5718838099619177
  @DF-RKS Final Energy:  -188.57202615408147
    Total Energy =                       -188.5720261540814704
  @DF-RKS Final Energy:  -188.57204148936927
    Total Energy =                       -188.5720414893692691
  Basis Set: (3-21G AUX)
    Blend: DEF2-SVP-JKFIT
  Basis Set: 3-21G
    Blend: 3-21G
  Basis Set: (3-21G AUX)
    Blend: DEF2-SVP-JKFIT
  @DF-RKS Final Energy:  -188.57204813126509
    Total Energy =                       -188.5720481312650918
  Basis Set: 3-21G
    Blend: 3-21G
  Basis Set: (3-21G AUX)
    Blend: DEF2-SVP-JKFIT
  Charge       = 0
  Multiplicity = 1
  Basis Set: 3-21G
    Blend: 3-21G
  Basis Set: (3-21G AUX)
    Blend: DEF2-SVP-JKFIT

    Orbital Energies [Eh]
    ---------------------

    Doubly Occupied:

       1A    -19.130573     2A    -19.106995     3A    -10.344810
       4A     -1.167640     5A     -1.104935     6A     -0.600694
       7A     -0.554690     8A     -0.500320     9A     -0.496647
      10A     -0.399784    11A     -0.347424    12A     -0.295736

  @DF-RKS Final Energy:  -188.57204826263163

   => Energetics <=

    Nuclear Repulsion Energy =             68.6370040572032565
    One-Electron Energy =                -392.8902546041645110
    Two-Electron Energy =                 154.3751811092382127
    DFT Exchange-Correlation Energy =     -18.6939788249086050
    Empirical Dispersion Energy =           0.0000000000000000
    VV10 Nonlocal Energy =                  0.0000000000000000
    Total Energy =                       -188.5720482626316254

  Dipole Moment: [D]
     X:    -0.2321      Y:    -1.0977      Z:     0.1933     Total:     1.1385

    Molecular point group: c1
  Basis Set: 3-21G
    Blend: 3-21G
  Basis Set: (3-21G AUX)
    Blend: DEF2-SVP-JKFIT

  -Total Gradient:
     Atom            X                  Y                   Z
    ------   -----------------  -----------------  -----------------
       1       -0.000132259218    -0.000034947280     0.000024249816
       2        0.000122265998     0.000013934597     0.000000205108
       3        0.000019287800    -0.000000087163    -0.000012719350
       4       -0.000027101995     0.000040264105    -0.000009156149
       5        0.000020988024     0.000011449778    -0.000008135889

  **** Optimization is complete! (in 11 steps) ****
    Final optimized geometry and variables:
    Molecular point group: c1

    Geometry (in Angstrom), charge = 0, multiplicity = 1:

    C            0.129784220059    -0.143510255477     0.036169310292
    O           -1.154576783693    -0.249347483617    -0.030169152237
    O            1.080794459278     0.552841892869    -0.032650887544
    H            0.341375655214    -1.653518907106     0.337786902363
    H           -0.715715098318    -1.454405581870     0.228550935085

*** Psi4 exiting successfully. Buy a developer a beer!
