                               Psi4 1.2.1 release

  ==> Input File <==

--------------------------------------------------------------------------

molecule{
0 1
 C   -2.275438655723   -0.148470585038    0.340747625648
 O   -2.132692615894   -0.068931541528    1.525993121770
 O   -2.933953619388   -0.128299139979   -0.657279681941
 N   -0.520550841297   -0.497677125548   -0.354101470308
 H   -0.627575596714   -0.460601623495   -1.367800614555
 H   -0.277909083917   -1.460398868438   -0.114208959863
 C    0.522979996344    0.411299106923    0.114729323024
 H    0.375889561325    0.538033085032    1.197061696578
 C    1.854031674467   -0.300600645910   -0.080905749915
 O    1.937736162585   -1.479519151444   -0.361532785850
 O    2.918872177481    0.496382605153    0.109582196043
 H    3.722466600632   -0.046832056946    0.000393529658
 C    0.419357488686    1.777864867966   -0.572413881931
 H   -0.562316073706    2.218276697473   -0.373893868037
 H    1.188576768526    2.456260718635   -0.196304479597
 H    0.544407098591    1.684460631321   -1.658032513950
}

set basis 6-31+G*
set_num_threads(16)
e, wfn = properties('mp2', return_wfn=True)

d = wfn.Da().to_array()
s = wfn.S().to_array()
c = wfn.Ca().to_array()
occs = c.T.dot(s.dot(d).dot(s).dot(c))

molden(wfn, 'mp2.molden', density_a = psi4.core.Matrix.from_array(occs))
--------------------------------------------------------------------------

    Molecular point group: c1
  Charge       = 0
  Multiplicity = 1
  Basis Set: 6-31+G*
    Blend: 6-31+G*
  Basis Set: (6-31+G* AUX)
    Blend: HEAVY-AUG-CC-PVDZ-JKFIT

    Orbital Energies [Eh]
    ---------------------

    Doubly Occupied:

       1A    -20.661708     2A    -20.600382     3A    -20.589583
       4A    -20.586755     5A    -15.627802     6A    -11.438857
       7A    -11.428803     8A    -11.322754     9A    -11.262796
      10A     -1.503283    11A     -1.460711    12A     -1.400157
      13A     -1.389613    14A     -1.261875    15A     -1.061350
      16A     -0.943812    17A     -0.844592    18A     -0.764368
      19A     -0.746864    20A     -0.735250    21A     -0.729435
      22A     -0.681094    23A     -0.671007    24A     -0.664950
      25A     -0.651395    26A     -0.633768    27A     -0.622911
      28A     -0.582735    29A     -0.563164    30A     -0.549807
      31A     -0.514178    32A     -0.489047    33A     -0.482983
      34A     -0.468236    35A     -0.444405

  @DF-RHF Final Energy:  -509.48448697387829

   => Energetics <=

    Nuclear Repulsion Energy =            458.5656119303594096
    One-Electron Energy =               -1607.3393387827738934
    Two-Electron Energy =                 639.2892398785362502
    Total Energy =                       -509.4844869738782336
  Basis Set: (6-31+G* AUX)
    Blend: HEAVY-AUG-CC-PVDZ-RI
    Molecular point group: c1

    Geometry (in Angstrom), charge = 0, multiplicity = 1:

       Center              X                  Y                   Z               Mass
    ------------   -----------------  -----------------  -----------------  -----------------
         C           -2.275438655723    -0.148470585038     0.340747625648    12.000000000000
         O           -2.132692615894    -0.068931541528     1.525993121770    15.994914619560
         O           -2.933953619388    -0.128299139979    -0.657279681941    15.994914619560
         N           -0.520550841297    -0.497677125548    -0.354101470308    14.003074004780
         H           -0.627575596714    -0.460601623495    -1.367800614555     1.007825032070
         H           -0.277909083917    -1.460398868438    -0.114208959863     1.007825032070
         C            0.522979996344     0.411299106923     0.114729323024    12.000000000000
         H            0.375889561325     0.538033085032     1.197061696578     1.007825032070
         C            1.854031674467    -0.300600645910    -0.080905749915    12.000000000000
         O            1.937736162585    -1.479519151444    -0.361532785850    15.994914619560
         O            2.918872177481     0.496382605153     0.109582196043    15.994914619560
         H            3.722466600632    -0.046832056946     0.000393529658     1.007825032070
         C            0.419357488686     1.777864867966    -0.572413881931    12.000000000000
         H           -0.562316073706     2.218276697473    -0.373893868037     1.007825032070
         H            1.188576768526     2.456260718635    -0.196304479597     1.007825032070
         H            0.544407098591     1.684460631321    -1.658032513950     1.007825032070

  Basis Set: 6-31+G*
    Blend: 6-31+G*
  Basis Set: (6-31+G* AUX)
    Blend: HEAVY-AUG-CC-PVDZ-JKFIT
	 Reference Energy          =    -509.4844869738782904 [Eh]
	 Singles Energy            =      -0.0000000000000000 [Eh]
	 Same-Spin Energy          =      -0.3936552169059184 [Eh]
	 Opposite-Spin Energy      =      -1.0586491411185841 [Eh]
	 Correlation Energy        =      -1.4523043580245025 [Eh]
	 Total Energy              =    -510.9367913319027821 [Eh]

	 ================> DF-SCS-MP2 Energies <==================
	-----------------------------------------------------------
	 SCS Same-Spin Scale       =       0.3333333333333333 [-]
	 SCS Opposite-Spin Scale   =       1.2000000000000000 [-]
	 SCS Same-Spin Energy      =      -0.1312184056353061 [Eh]
	 SCS Opposite-Spin Energy  =      -1.2703789693423009 [Eh]
	 SCS Correlation Energy    =      -1.4015973749776069 [Eh]
	 SCS Total Energy          =    -510.8860843488558885 [Eh]
	-----------------------------------------------------------

  Dipole Moment: [D]
     X:     5.0129      Y:     0.9608      Z:    -1.3180     Total:     5.2715

*** Psi4 exiting successfully. Buy a developer a beer!
