                               Psi4 1.2.1 release

  ==> Input File <==

--------------------------------------------------------------------------
molecule{
0 1
    C           -2.005217769593    -0.199237767993     0.365170813877
    O           -2.183267301723    -0.071482649957     1.548171482950
    O           -2.717776087611    -0.146346666465    -0.710058018997
    N           -0.624503354044    -0.450496918147    -0.303712706182
    H           -1.535199220469    -0.277358282065    -1.217511552159
    H           -0.339892470928    -1.431513814489    -0.212528229693
    C            0.476621524553     0.432265710128     0.119585943527
    H            0.379000816751     0.583382498823     1.206768758991
    C            1.791265890324    -0.309118308705    -0.092779138810
    O            1.874997282961    -1.488367475796    -0.367323265466
    O            2.861450199697     0.485755835615     0.098375081742
    H            3.662419460785    -0.062402936520    -0.009883307599
    C            0.406615235091     1.791492697625    -0.585743509235
    H           -0.560927712260     2.263315252141    -0.386713384136
    H            1.194136242771     2.453051296298    -0.217352126953
    H            0.520727300219     1.675169915320    -1.668818203510

}

set{
   basis 6-31+G*
   full_hess_every 0
   freeze_core True
   normal_modes_write True
}

set_num_threads(16)
frequencies('b3lyp')
--------------------------------------------------------------------------

    Molecular point group: c1
  Charge       = 0
  Multiplicity = 1
  Basis Set: 6-31+G*
    Blend: 6-31+G*
  Basis Set: (6-31+G* AUX)
    Blend: HEAVY-AUG-CC-PVDZ-JKFIT
  @DF-RKS Final Energy:  -512.28466283352850
    Total Energy =                       -512.2846628335285004
    Molecular point group: c1
  Basis Set: 6-31+G*
    Blend: 6-31+G*
  Basis Set: (6-31+G* AUX)
    Blend: HEAVY-AUG-CC-PVDZ-JKFIT
  Basis Set: 6-31+G*
    Blend: 6-31+G*
  Basis Set: (6-31+G* AUX)
    Blend: HEAVY-AUG-CC-PVDZ-JKFIT
  @DF-RKS Final Energy:  -512.28466221912242
    Total Energy =                       -512.2846622191224242
  Basis Set: 6-31+G*
    Blend: 6-31+G*
  Basis Set: (6-31+G* AUX)
    Blend: HEAVY-AUG-CC-PVDZ-JKFIT
  Basis Set: 6-31+G*
    Blend: 6-31+G*
  @DF-RKS Final Energy:  -512.28466267707074
    Total Energy =                       -512.2846626770706280
  @DF-RKS Final Energy:  -512.28466251901443
    Total Energy =                       -512.2846625190144323
  @DF-RKS Final Energy:  -512.28466256045692
    Total Energy =                       -512.2846625604569226
  @DF-RKS Final Energy:  -512.28466137018381
    Total Energy =                       -512.2846613701838123
  @DF-RKS Final Energy:  -512.28466133691927
    Total Energy =                       -512.2846613369192710
  @DF-RKS Final Energy:  -512.28466271965556
    Total Energy =                       -512.2846627196555573
  @DF-RKS Final Energy:  -512.28466273066908
    Total Energy =                       -512.2846627306690834
  @DF-RKS Final Energy:  -512.28466282810450
    Total Energy =                       -512.2846628281045014
  @DF-RKS Final Energy:  -512.28466280355872
    Total Energy =                       -512.2846628035587173
  @DF-RKS Final Energy:  -512.28466227794536
    Total Energy =                       -512.2846622779453583
  @DF-RKS Final Energy:  -512.28466225786372
    Total Energy =                       -512.2846622578637152
  @DF-RKS Final Energy:  -512.28466264323401
    Total Energy =                       -512.2846626432340145
  @DF-RKS Final Energy:  -512.28466243110222
    Total Energy =                       -512.2846624311022197
  @DF-RKS Final Energy:  -512.28466274005962
    Total Energy =                       -512.2846627400596162
  @DF-RKS Final Energy:  -512.28466285708578
    Total Energy =                       -512.2846628570857774
  @DF-RKS Final Energy:  -512.28466282366139
    Total Energy =                       -512.2846628236613924
  @DF-RKS Final Energy:  -512.28466251620944
    Total Energy =                       -512.2846625162094369
  @DF-RKS Final Energy:  -512.28466229931882
    Total Energy =                       -512.2846622993188248
  @DF-RKS Final Energy:  -512.28466251389204
    Total Energy =                       -512.2846625138919308
  @DF-RKS Final Energy:  -512.28465787502125
    Total Energy =                       -512.2846578750211393
  @DF-RKS Final Energy:  -512.28465759386472
    Total Energy =                       -512.2846575938647220
  @DF-RKS Final Energy:  -512.28466221154963
    Total Energy =                       -512.2846622115496302
  @DF-RKS Final Energy:  -512.28466206251983
    Total Energy =                       -512.2846620625198284
  @DF-RKS Final Energy:  -512.28466242001377
    Total Energy =                       -512.2846624200136603
  @DF-RKS Final Energy:  -512.28466262591166
    Total Energy =                       -512.2846626259116647
  @DF-RKS Final Energy:  -512.28465979970076
    Total Energy =                       -512.2846597997007621
  @DF-RKS Final Energy:  -512.28465952934016
    Total Energy =                       -512.2846595293401606
  @DF-RKS Final Energy:  -512.28466089046401
    Total Energy =                       -512.2846608904640107
  @DF-RKS Final Energy:  -512.28466124561942
    Total Energy =                       -512.2846612456194180
  @DF-RKS Final Energy:  -512.28465999216962
    Total Energy =                       -512.2846599921696225
  @DF-RKS Final Energy:  -512.28465997178864
    Total Energy =                       -512.2846599717886420
  @DF-RKS Final Energy:  -512.28465959569496
    Total Energy =                       -512.2846595956949614
  @DF-RKS Final Energy:  -512.28465962650307
    Total Energy =                       -512.2846596265030712
  @DF-RKS Final Energy:  -512.28466020651172
    Total Energy =                       -512.2846602065117168
  @DF-RKS Final Energy:  -512.28466019563768
    Total Energy =                       -512.2846601956376844
  @DF-RKS Final Energy:  -512.28465951573548
    Total Energy =                       -512.2846595157354841
  Basis Set: (6-31+G* AUX)
    Blend: HEAVY-AUG-CC-PVDZ-JKFIT
  Basis Set: 6-31+G*
    Blend: 6-31+G*
  Basis Set: (6-31+G* AUX)
    Blend: HEAVY-AUG-CC-PVDZ-JKFIT
  @DF-RKS Final Energy:  -512.28465957386231
    Total Energy =                       -512.2846595738623137
  Basis Set: 6-31+G*
    Blend: 6-31+G*
  Basis Set: (6-31+G* AUX)
    Blend: HEAVY-AUG-CC-PVDZ-JKFIT
    Molecular point group: c1
  Charge       = 0
  Multiplicity = 1
  Basis Set: 6-31+G*
    Blend: 6-31+G*
  Basis Set: (6-31+G* AUX)
    Blend: HEAVY-AUG-CC-PVDZ-JKFIT

    Orbital Energies [Eh]
    ---------------------

    Doubly Occupied:

       1A    -19.248770     2A    -19.194436     3A    -19.173223
       4A    -19.162460     5A    -14.410291     6A    -10.371005
       7A    -10.355565     8A    -10.284996     9A    -10.220710
      10A     -1.157353    11A     -1.112691    12A     -1.068583
      13A     -1.036768    14A     -0.952589    15A     -0.806502
      16A     -0.713259    17A     -0.651879    18A     -0.601707
      19A     -0.553802    20A     -0.537097    21A     -0.534627
      22A     -0.525424    23A     -0.485844    24A     -0.472878
      25A     -0.458391    26A     -0.442366    27A     -0.439149
      28A     -0.427157    29A     -0.408770    30A     -0.391706
      31A     -0.368826    32A     -0.327807    33A     -0.318410
      34A     -0.316819    35A     -0.290095

  @DF-RKS Final Energy:  -512.28466283503440

   => Energetics <=

    Nuclear Repulsion Energy =            465.8888318636155645
    One-Electron Energy =               -1622.6628666226558835
    Two-Electron Energy =                 697.4492037356483252
    DFT Exchange-Correlation Energy =     -52.9598318116424736
    Empirical Dispersion Energy =           0.0000000000000000
    VV10 Nonlocal Energy =                  0.0000000000000000
    Total Energy =                       -512.2846628350343963

  Dipole Moment: [D]
     X:     5.3183      Y:     1.0926      Z:    -1.3949     Total:     5.6057

    Molecular point group: c1

    Geometry (in Angstrom), charge = 0, multiplicity = 1:

       Center              X                  Y                   Z               Mass
    ------------   -----------------  -----------------  -----------------  -----------------
         C           -2.005217769593    -0.199237767993     0.365170813877    12.000000000000
         O           -2.183267301723    -0.071482649957     1.548171482950    15.994914619560
         O           -2.717776087611    -0.146346666465    -0.710058018997    15.994914619560
         N           -0.624503354044    -0.450496918147    -0.303712706182    14.003074004780
         H           -1.535199220469    -0.277358282065    -1.217511552159     1.007825032070
         H           -0.339892470928    -1.431513814489    -0.212528229693     1.007825032070
         C            0.476621524553     0.432265710128     0.119585943527    12.000000000000
         H            0.379000816751     0.583382498823     1.206768758991     1.007825032070
         C            1.791265890324    -0.309118308705    -0.092779138810    12.000000000000
         O            1.874997282961    -1.488367475796    -0.367323265466    15.994914619560
         O            2.861450199697     0.485755835615     0.098375081742    15.994914619560
         H            3.662419460785    -0.062402936520    -0.009883307599     1.007825032070
         C            0.406615235091     1.791492697625    -0.585743509235    12.000000000000
         H           -0.560927712260     2.263315252141    -0.386713384136     1.007825032070
         H            1.194136242771     2.453051296298    -0.217352126953     1.007825032070
         H            0.520727300219     1.675169915320    -1.668818203510     1.007825032070

  Basis Set: 6-31+G*
    Blend: 6-31+G*
  Basis Set: (6-31+G* AUX)
    Blend: HEAVY-AUG-CC-PVDZ-JKFIT

  -Total Gradient:
     Atom            X                  Y                   Z
    ------   -----------------  -----------------  -----------------
       1       -0.000131551228    -0.000004183714     0.000011259538
       2        0.000028410763     0.000024091560     0.000025424983
       3        0.000079933890    -0.000012150429     0.000083830642
       4       -0.000023061324    -0.000067210618    -0.000097221407
       5        0.000081594520     0.000011663152     0.000013029386
       6       -0.000029048896     0.000017498127    -0.000009839857
       7       -0.000017647318     0.000039779749     0.000064952813
       8       -0.000010485202    -0.000000126947    -0.000007604281
       9       -0.000114429402    -0.000049374927     0.000001305495
      10        0.000082256452     0.000066883108     0.000002241200
      11        0.000033524195    -0.000029606630    -0.000058911195
      12        0.000040063620     0.000009702747     0.000027278198
      13        0.000024664463     0.000018519672    -0.000011024263
      14       -0.000009218173    -0.000003324425    -0.000001459364
      15       -0.000013011577     0.000004686671     0.000005083305
      16        0.000005016734    -0.000003881106     0.000003465019

  Vibration                       1                   8                   9
  Freq [cm^-1]                1763.4386i           45.0682             65.1414
  Irrep                           A                   A                   A
  Reduced mass [u]              1.0799              5.2703              9.4138
  Force const [mDyne/A]        -1.9786              0.0063              0.0235

  Vibration                       10                  11                  12
  Freq [cm^-1]                 102.9982            144.2528            220.6390
  Irrep                           A                   A                   A
  Reduced mass [u]              6.9559              6.0591              1.9196
  Force const [mDyne/A]         0.0435              0.0743              0.0551

  Vibration                       13                  14                  15
  Freq [cm^-1]                 237.0939            302.7567            395.7466
  Irrep                           A                   A                   A
  Reduced mass [u]              1.6697              3.4671              3.4410
  Force const [mDyne/A]         0.0553              0.1872              0.3175

  Vibration                       16                  17                  18
  Freq [cm^-1]                 451.1516            540.5205            578.0943
  Irrep                           A                   A                   A
  Reduced mass [u]              4.5816              3.5289              2.5983
  Force const [mDyne/A]         0.5494              0.6075              0.5116

  Vibration                       19                  20                  21
  Freq [cm^-1]                 631.4755            681.7567            722.1429
  Irrep                           A                   A                   A
  Reduced mass [u]              1.5790              5.3002              3.3216
  Force const [mDyne/A]         0.3710              1.4514              1.0206

  Vibration                       22                  23                  24
  Freq [cm^-1]                 759.6565            822.5226            839.2354
  Irrep                           A                   A                   A
  Reduced mass [u]              6.1349              4.3368              2.4608
  Force const [mDyne/A]         2.0859              1.7287              1.0211

  Vibration                       25                  26                  27
  Freq [cm^-1]                 955.4243            988.3155           1087.0768
  Irrep                           A                   A                   A
  Reduced mass [u]              2.1551              1.9437              1.8263
  Force const [mDyne/A]         1.1591              1.1186              1.2716

  Vibration                       28                  29                  30
  Freq [cm^-1]                1126.6918           1142.5729           1199.3437
  Irrep                           A                   A                   A
  Reduced mass [u]              2.0002              3.1255              2.1000
  Force const [mDyne/A]         1.4960              2.4040              1.7798

  Vibration                       31                  32                  33
  Freq [cm^-1]                1272.4081           1300.5166           1329.8333
  Irrep                           A                   A                   A
  Reduced mass [u]              2.4595              1.4521              1.6304
  Force const [mDyne/A]         2.3461              1.4470              1.6988

  Vibration                       34                  35                  36
  Freq [cm^-1]                1371.1869           1391.0082           1443.8479
  Irrep                           A                   A                   A
  Reduced mass [u]              1.4087              1.7706              1.2870
  Force const [mDyne/A]         1.5604              2.0185              1.5808

  Vibration                       37                  38                  39
  Freq [cm^-1]                1463.8779           1521.3699           1524.2890
  Irrep                           A                   A                   A
  Reduced mass [u]              1.2549              1.0437              1.0903
  Force const [mDyne/A]         1.5844              1.4233              1.4925

  Vibration                       40                  41                  42
  Freq [cm^-1]                1811.5878           1846.2733           2109.5356
  Irrep                           A                   A                   A
  Reduced mass [u]             10.1594              3.4410              1.3232
  Force const [mDyne/A]        19.6443              6.9108              3.4694

  Vibration                       43                  44                  45
  Freq [cm^-1]                3017.7837           3066.2870           3134.6977
  Irrep                           A                   A                   A
  Reduced mass [u]              1.0818              1.0363              1.1038
  Force const [mDyne/A]         5.8048              5.7407              6.3907

  Vibration                       46                  47                  48
  Freq [cm^-1]                3157.9392           3448.9547           3677.5523
  Irrep                           A                   A                   A
  Reduced mass [u]              1.1018              1.0739              1.0646
  Force const [mDyne/A]         6.4736              7.5262              8.4829

  ==> Thermochemistry Components <==

  Entropy, S
    Electronic S            0.000 [cal/(mol K)]        0.000 [J/(mol K)]       0.00000000 [mEh/K] (multiplicity = 1)
    Translational S        40.569 [cal/(mol K)]      169.741 [J/(mol K)]       0.06465075 [mEh/K] (mol. weight = 133.0375 [u], P = 101325.00 [Pa])
    Rotational S           29.283 [cal/(mol K)]      122.521 [J/(mol K)]       0.04666590 [mEh/K] (symmetry no. = 1)
    Vibrational S          25.686 [cal/(mol K)]      107.471 [J/(mol K)]       0.04093369 [mEh/K]
  Total S                  95.539 [cal/(mol K)]      399.733 [J/(mol K)]       0.15225034 [mEh/K]
  Correction S              0.000 [cal/(mol K)]        0.000 [J/(mol K)]       0.00000000 [mEh/K]

  Constant volume heat capacity, Cv
    Electronic Cv           0.000 [cal/(mol K)]        0.000 [J/(mol K)]       0.00000000 [mEh/K]
    Translational Cv        2.981 [cal/(mol K)]       12.472 [J/(mol K)]       0.00475022 [mEh/K]
    Rotational Cv           2.981 [cal/(mol K)]       12.472 [J/(mol K)]       0.00475022 [mEh/K]
    Vibrational Cv         25.542 [cal/(mol K)]      106.866 [J/(mol K)]       0.04070301 [mEh/K]
  Total Cv                 31.503 [cal/(mol K)]      131.809 [J/(mol K)]       0.05020345 [mEh/K]
  Correction Cv             0.000 [cal/(mol K)]        0.000 [J/(mol K)]       0.00000000 [mEh/K]

  Constant pressure heat capacity, Cp
    Electronic Cp           0.000 [cal/(mol K)]        0.000 [J/(mol K)]       0.00000000 [mEh/K]
    Translational Cp        4.968 [cal/(mol K)]       20.786 [J/(mol K)]       0.00791704 [mEh/K]
    Rotational Cp           2.981 [cal/(mol K)]       12.472 [J/(mol K)]       0.00475022 [mEh/K]
    Vibrational Cp         25.542 [cal/(mol K)]      106.866 [J/(mol K)]       0.04070301 [mEh/K]
  Total Cp                 33.490 [cal/(mol K)]      140.124 [J/(mol K)]       0.05337026 [mEh/K]
  Correction Cp             0.000 [cal/(mol K)]        0.000 [J/(mol K)]       0.00000000 [mEh/K]

  ==> Thermochemistry Energy Analysis <==

  Raw electronic energy, E0
  Total E0, Electronic energy at well bottom at 0 [K]                 -512.28466284 [Eh]

  Zero-point energy, ZPE_vib = Sum_i nu_i / 2
    Electronic ZPE          0.000 [kcal/mol]        0.000 [kJ/mol]       0.00000000 [Eh]
    Translational ZPE       0.000 [kcal/mol]        0.000 [kJ/mol]       0.00000000 [Eh]
    Rotational ZPE          0.000 [kcal/mol]        0.000 [kJ/mol]       0.00000000 [Eh]
    Vibrational ZPE        74.236 [kcal/mol]      310.602 [kJ/mol]       0.11830209 [Eh]       25964.305 [cm^-1]
  Correction ZPE           74.236 [kcal/mol]      310.602 [kJ/mol]       0.11830209 [Eh]       25964.305 [cm^-1]
  Total ZPE, Electronic energy at 0 [K]                               -512.16636074 [Eh]

  Thermal Energy, E (includes ZPE)
    Electronic E            0.000 [kcal/mol]        0.000 [kJ/mol]       0.00000000 [Eh]
    Translational E         0.889 [kcal/mol]        3.718 [kJ/mol]       0.00141628 [Eh]
    Rotational E            0.889 [kcal/mol]        3.718 [kJ/mol]       0.00141628 [Eh]
    Vibrational E          78.168 [kcal/mol]      327.056 [kJ/mol]       0.12456916 [Eh]
  Correction E             79.946 [kcal/mol]      334.493 [kJ/mol]       0.12740171 [Eh]
  Total E, Electronic energy at  298.15 [K]                           -512.15726112 [Eh]

  Enthalpy, H_trans = E_trans + k_B * T
    Electronic H            0.000 [kcal/mol]        0.000 [kJ/mol]       0.00000000 [Eh]
    Translational H         1.481 [kcal/mol]        6.197 [kJ/mol]       0.00236046 [Eh]
    Rotational H            0.889 [kcal/mol]        3.718 [kJ/mol]       0.00141628 [Eh]
    Vibrational H          78.168 [kcal/mol]      327.056 [kJ/mol]       0.12456916 [Eh]
  Correction H             80.538 [kcal/mol]      336.972 [kJ/mol]       0.12834590 [Eh]
  Total H, Enthalpy at  298.15 [K]                                    -512.15631694 [Eh]

  Gibbs free energy, G = H - T * S
    Electronic G            0.000 [kcal/mol]        0.000 [kJ/mol]       0.00000000 [Eh]
    Translational G       -10.614 [kcal/mol]      -44.411 [kJ/mol]      -0.01691516 [Eh]
    Rotational G           -7.842 [kcal/mol]      -32.811 [kJ/mol]      -0.01249716 [Eh]
    Vibrational G          70.510 [kcal/mol]      295.014 [kJ/mol]       0.11236478 [Eh]
  Correction G             52.053 [kcal/mol]      217.792 [kJ/mol]       0.08295246 [Eh]
  Total G, Free enthalpy at  298.15 [K]                               -512.20171037 [Eh]

*** Psi4 exiting successfully. Buy a developer a beer!
