                               Psi4 1.2.1 release

  ==> Input File <==

--------------------------------------------------------------------------
molecule{
0 2
 C 0.373812 0.871847 -0.307479
 H 0.058654 0.507392 -1.281982
 H -0.053210 1.817223 0.008737
 C 1.550712 0.463313 0.247140
 H 1.937838 0.940572 1.144717
 C -1.447991 -0.347048 0.523039
 H -1.013980 -1.341161 0.477254
 H -1.575035 0.073342 1.523186
 N 2.238623 -0.706515 -0.107689
 H 2.036287 -1.029095 -1.049008
 H 3.241198 -0.657749 0.037803
 O -2.528854 -0.240759 -0.333964
 H -2.930472 0.632486 -0.211364
}

set{
   basis 3-21G
   freeze_core True
   reference uhf
   opt_type ts
}

set_num_threads(1)
optimize('b3lyp')
--------------------------------------------------------------------------

    Molecular point group: c1
  Charge       = 0
  Multiplicity = 2
  Basis Set: 3-21G
    Blend: 3-21G
  Basis Set: (3-21G AUX)
    Blend: DEF2-SVP-JKFIT
  @DF-UKS Final Energy:  -247.61461029126440
    Total Energy =                       -247.6146102912644551
    Molecular point group: c1
  Basis Set: 3-21G
    Blend: 3-21G
  Basis Set: (3-21G AUX)
    Blend: DEF2-SVP-JKFIT
  Basis Set: 3-21G
    Blend: 3-21G
  Basis Set: (3-21G AUX)
    Blend: DEF2-SVP-JKFIT
  @DF-UKS Final Energy:  -247.61719142652254
    Total Energy =                       -247.6171914265225382
  Basis Set: 3-21G
    Blend: 3-21G
  Basis Set: (3-21G AUX)
    Blend: DEF2-SVP-JKFIT
  Basis Set: 3-21G
    Blend: 3-21G
  @DF-UKS Final Energy:  -247.61884842725669
    Total Energy =                       -247.6188484272566939
  @DF-UKS Final Energy:  -247.61789128375642
    Total Energy =                       -247.6178912837563644
  @DF-UKS Final Energy:  -247.61655585173810
    Total Energy =                       -247.6165558517380987
  @DF-UKS Final Energy:  -247.61646136521694
    Total Energy =                       -247.6164613652168782
  @DF-UKS Final Energy:  -247.61709994696105
    Total Energy =                       -247.6170999469610479
  @DF-UKS Final Energy:  -247.61723394603814
    Total Energy =                       -247.6172339460381124
  @DF-UKS Final Energy:  -247.61735664431950
    Total Energy =                       -247.6173566443194716
  @DF-UKS Final Energy:  -247.61742548407284
    Total Energy =                       -247.6174254840728963
  @DF-UKS Final Energy:  -247.61752025018910
    Total Energy =                       -247.6175202501890737
  @DF-UKS Final Energy:  -247.61761749561128
    Total Energy =                       -247.6176174956113130
  @DF-UKS Final Energy:  -247.61768913406581
    Total Energy =                       -247.6176891340657278
  @DF-UKS Final Energy:  -247.61771670859952
    Total Energy =                       -247.6177167085995166
  @DF-UKS Final Energy:  -247.61779847128025
    Total Energy =                       -247.6177984712802242
  @DF-UKS Final Energy:  -247.61783182956526
    Total Energy =                       -247.6178318295653185
  @DF-UKS Final Energy:  -247.61783490580831
    Total Energy =                       -247.6178349058083938
  @DF-UKS Final Energy:  -247.61789818597066
    Total Energy =                       -247.6178981859706312
  @DF-UKS Final Energy:  -247.61802734069710
    Total Energy =                       -247.6180273406971253
  @DF-UKS Final Energy:  -247.61670982334874
    Total Energy =                       -247.6167098233486570
  @DF-UKS Final Energy:  -247.61768803403641
    Total Energy =                       -247.6176880340363482
  @DF-UKS Final Energy:  -247.61803057110501
    Total Energy =                       -247.6180305711050380
  @DF-UKS Final Energy:  -247.61804112325729
    Total Energy =                       -247.6180411232573135
  @DF-UKS Final Energy:  -247.61805037533242
    Total Energy =                       -247.6180503753323592
  @DF-UKS Final Energy:  -247.61805320124569
    Total Energy =                       -247.6180532012456581
  @DF-UKS Final Energy:  -247.61805668536618
    Total Energy =                       -247.6180566853662128
  @DF-UKS Final Energy:  -247.61805795810841
    Total Energy =                       -247.6180579581084373
  @DF-UKS Final Energy:  -247.61805923210613
    Total Energy =                       -247.6180592321061908
  Basis Set: (3-21G AUX)
    Blend: DEF2-SVP-JKFIT
  Basis Set: 3-21G
    Blend: 3-21G
  Basis Set: (3-21G AUX)
    Blend: DEF2-SVP-JKFIT
  @DF-UKS Final Energy:  -247.61806059990204
    Total Energy =                       -247.6180605999019804
  Basis Set: 3-21G
    Blend: 3-21G
  Basis Set: (3-21G AUX)
    Blend: DEF2-SVP-JKFIT
  Charge       = 0
  Multiplicity = 2
  Basis Set: 3-21G
    Blend: 3-21G
  Basis Set: (3-21G AUX)
    Blend: DEF2-SVP-JKFIT

    Orbital Energies [Eh]
    ---------------------

    Alpha Occupied:

       1A    -19.034133     2A    -14.244249     3A    -10.139800
       4A    -10.136411     5A    -10.085713     6A     -1.009081
       7A     -0.891784     8A     -0.717505     9A     -0.639600
      10A     -0.574519    11A     -0.518715    12A     -0.484376
      13A     -0.459808    14A     -0.411378    15A     -0.396267
      16A     -0.365943    17A     -0.346792    18A     -0.322861
      19A     -0.300215    20A     -0.203179    21A     -0.111471

    Alpha Virtual:

      22A      0.083153    23A      0.102017    24A      0.108292
      25A      0.145286    26A      0.167262    27A      0.194101
      28A      0.212939    29A      0.215092    30A      0.231827
      31A      0.261195    32A      0.373436    33A      0.404133
      34A      0.666491    35A      0.695836    36A      0.739906
      37A      0.763754    38A      0.794363    39A      0.817771
      40A      0.846586    41A      0.887466    42A      0.916661
      43A      0.943584    44A      0.979991    45A      1.024620
      46A      1.066925    47A      1.075886    48A      1.105657
      49A      1.125072    50A      1.139361    51A      1.280230
      52A      1.374979    53A      1.381473    54A      1.510809
      55A      1.558951    56A      1.654871    57A      1.715465
      58A      1.777652    59A      2.045877    60A      2.469603
      61A      2.954873

    Beta Occupied:

       1A    -19.030651     2A    -14.242080     3A    -10.132004
       4A    -10.128212     5A    -10.087763     6A     -0.999903
       7A     -0.885452     8A     -0.713621     9A     -0.618237
      10A     -0.571387    11A     -0.517085    12A     -0.476396
      13A     -0.456875    14A     -0.404790    15A     -0.393288
      16A     -0.357742    17A     -0.327647    18A     -0.306535
      19A     -0.285342    20A     -0.185020

    Beta Virtual:

      21A      0.001507    22A      0.099847    23A      0.106837
      24A      0.116212    25A      0.146727    26A      0.173989
      27A      0.197287    28A      0.214332    29A      0.224401
      30A      0.235294    31A      0.274883    32A      0.379198
      33A      0.405553    34A      0.670835    35A      0.702468
      36A      0.749330    37A      0.783517    38A      0.812073
      39A      0.821093    40A      0.855042    41A      0.891811
      42A      0.927110    43A      0.945052    44A      0.983146
      45A      1.026147    46A      1.071442    47A      1.077533
      48A      1.112243    49A      1.126545    50A      1.146458
      51A      1.282907    52A      1.376591    53A      1.391117
      54A      1.524475    55A      1.572033    56A      1.659993
      57A      1.721462    58A      1.781005    59A      2.050783
      60A      2.475083    61A      2.962827

    Final Occupation by Irrep:
              A
    DOCC [    20 ]
    SOCC [     1 ]

  Energy converged.

  @DF-UKS Final Energy:  -247.61806098578410

   => Energetics <=

    Nuclear Repulsion Energy =            167.9522596116292448
    One-Electron Energy =                -668.5019772897350094
    Two-Electron Energy =                 280.9361954976451443
    DFT Exchange-Correlation Energy =     -28.0045388053234383
    Empirical Dispersion Energy =           0.0000000000000000
    VV10 Nonlocal Energy =                  0.0000000000000000
    Total Energy =                       -247.6180609857840693

  UHF NO Occupations:
  HONO-2 :   19  A 1.9996736
  HONO-1 :   20  A 1.9899951
  HONO-0 :   21  A 1.0000000
  LUNO+0 :   22  A 0.0100049
  LUNO+1 :   23  A 0.0003264
  LUNO+2 :   24  A 0.0001796
  LUNO+3 :   25  A 0.0001576

Properties will be evaluated at   0.000000,   0.000000,   0.000000 [a0]

Properties computed using the SCF density matrix

  Nuclear Dipole Moment: [e a0]
     X:     1.2621      Y:     1.0234      Z:     0.9958

  Electronic Dipole Moment: [e a0]
     X:    -0.7607      Y:    -0.8047      Z:    -0.9387

  Dipole Moment: [e a0]
     X:     0.5013      Y:     0.2186      Z:     0.0571     Total:     0.5499

  Dipole Moment: [D]
     X:     1.2743      Y:     0.5556      Z:     0.1452     Total:     1.3977

*** tstop() called on DESKTOP-QL22TIG at Thu Mar 21 14:37:02 2019
Module time:
	user time   =      15.23 seconds =       0.25 minutes
	system time =       0.46 seconds =       0.01 minutes
	total time  =         16 seconds =       0.27 minutes
Total time:
	user time   =     430.17 seconds =       7.17 minutes
	system time =      16.35 seconds =       0.27 minutes
	total time  =        457 seconds =       7.62 minutes

*** tstart() called on DESKTOP-QL22TIG
*** at Thu Mar 21 14:37:02 2019

         ------------------------------------------------------------
                                   SCF GRAD
                          Rob Parrish, Justin Turney,
                       Andy Simmonett, and Alex Sokolov
         ------------------------------------------------------------

  ==> Geometry <==

    Molecular point group: c1
    Full point group: C1

    Geometry (in Angstrom), charge = 0, multiplicity = 2:

       Center              X                  Y                   Z               Mass
    ------------   -----------------  -----------------  -----------------  -----------------
         C            0.356299825253     1.013243057490    -0.166403618312    12.000000000000
         H           -0.086635603400     0.686580639148    -1.101413887066     1.007825032070
         H           -0.002613359048     1.950166909144     0.240199946630     1.007825032070
         C            1.545351482127     0.508939188583     0.266605917293    12.000000000000
         H            2.044663795160     0.942899322873     1.127490601300     1.007825032070
         C           -1.428026199267    -0.274656937984     0.650421646081    12.000000000000
         H           -0.857947879160    -1.179509965545     0.819655070490     1.007825032070
         H           -1.787676463914     0.254633334095     1.534516198356     1.007825032070
         N            2.154609092859    -0.641092588855    -0.221587032878    14.003074004780
         H            1.792210520259    -1.086660484431    -1.055913933760     1.007825032070
         H            3.095480323942    -0.879398998425     0.059977252876     1.007825032070
         O           -2.327625728243    -0.443483300014    -0.436180972570    15.994914619560
         H           -2.832638360371     0.403185904264    -0.560745555406     1.007825032070

  Nuclear repulsion =  167.952259611629245

  ==> Basis Set <==

  Basis Set: 3-21G
    Blend: 3-21G
    Number of shells: 41
    Number of basis function: 61
    Number of Cartesian functions: 61
    Spherical Harmonics?: false
    Max angular momentum: 1

  ==> DFJKGrad: Density-Fitted SCF Gradients <==

    Gradient:                    1
    J tasked:                  Yes
    K tasked:                  Yes
    wK tasked:                  No
    OpenMP threads:              1
    Integrals threads:           1
    Memory (MB):               375
    Schwarz Cutoff:          0E+00
    Fitting Condition:       1E-12

   => Auxiliary Basis Set <=

  Basis Set: (3-21G AUX)
    Blend: DEF2-SVP-JKFIT
    Number of shells: 173
    Number of basis function: 613
    Number of Cartesian functions: 613
    Spherical Harmonics?: false
    Max angular momentum: 4

  ==> DFT Potential <==

   => Composite Functional: B3LYP <=

    B3LYP Hyb-GGA Exchange-Correlation Functional

    P. J. Stephens, F. J. Devlin, C. F. Chabalowski, and M. J. Frisch, J. Phys. Chem. 98, 11623 (1994)

    Deriv               =              1
    GGA                 =           TRUE
    Meta                =          FALSE

    Exchange Hybrid     =           TRUE
    MP2 Hybrid          =          FALSE

   => Exchange Functionals <=

    0.0800   Slater exchange
    0.7200         Becke 88

   => Exact (HF) Exchange <=

    0.2000               HF

   => Correlation Functionals <=

    0.1900   Vosko, Wilk & Nusair (VWN5_RPA)
    0.8100   Lee, Yang & Parr

   => Molecular Quadrature <=

    Radial Scheme       =       TREUTLER
    Pruning Scheme      =           FLAT
    Nuclear Scheme      =       TREUTLER

    BS radius alpha     =              1
    Pruning alpha       =              1
    Radial Points       =             75
    Spherical Points    =            302
    Total Points        =         285419
    Total Blocks        =           2196
    Max Points          =            256
    Max Functions       =             57

  -Total Gradient:
     Atom            X                  Y                   Z
    ------   -----------------  -----------------  -----------------
       1       -0.000064708867    -0.000010706632     0.000024251350
       2       -0.000004119317     0.000036581760    -0.000010380457
       3        0.000033192104     0.000002394183     0.000019345825
       4        0.000044129017    -0.000062925915    -0.000012726260
       5        0.000005676040     0.000009546803    -0.000008117399
       6        0.000007735932    -0.000027606867    -0.000073171013
       7        0.000023847508     0.000025004559     0.000029101316
       8       -0.000013208938     0.000022401209    -0.000023705761
       9       -0.000028943320    -0.000018739635     0.000039307522
      10        0.000027724455     0.000023959286    -0.000012745702
      11       -0.000025784438     0.000004577619    -0.000003704238
      12        0.000011850905    -0.000003387101     0.000056788888
      13       -0.000006141214    -0.000014373058    -0.000001054414

*** tstop() called on DESKTOP-QL22TIG at Thu Mar 21 14:37:05 2019
Module time:
	user time   =       3.69 seconds =       0.06 minutes
	system time =       0.12 seconds =       0.00 minutes
	total time  =          3 seconds =       0.05 minutes
Total time:
	user time   =     433.86 seconds =       7.23 minutes
	system time =      16.47 seconds =       0.27 minutes
	total time  =        460 seconds =       7.67 minutes

			-----------------------------------------
			 OPTKING 2.0: for geometry optimizations
			  - R.A. King,  Bethel University
			-----------------------------------------

	Previous internal coordinate definitions found.
	---Fragment 1 Geometry and Gradient---
	 C           0.6733090909        1.9147518847       -0.3144572661
	 H          -0.1637175638        1.2974493761       -2.0813706055
	 H          -0.0049385329        3.6852813717        0.4539121163
	 C           2.9202910803        0.9617556847        0.5038121691
	 H           3.8638546067        1.7818214911        2.1306484539
	 C          -2.6985784272       -0.5190263933        1.2291187820
	 H          -1.6212865279       -2.2289508059        1.5489236067
	 H          -3.3782189310        0.4811872657        2.8998153614
	 N           4.0716211089       -1.2114894188       -0.4187388067
	 H           3.3867870558       -2.0534907150       -1.9953881547
	 H           5.8496100620       -1.6618232686        0.1133405821
	 O          -4.3985751662       -0.8380619815       -0.8242625825
	 H          -5.3529107346        0.7619109397       -1.0596555299
	            -0.0000647089       -0.0000107066        0.0000242513
	            -0.0000041193        0.0000365818       -0.0000103805
	             0.0000331921        0.0000023942        0.0000193458
	             0.0000441290       -0.0000629259       -0.0000127263
	             0.0000056760        0.0000095468       -0.0000081174
	             0.0000077359       -0.0000276069       -0.0000731710
	             0.0000238475        0.0000250046        0.0000291013
	            -0.0000132089        0.0000224012       -0.0000237058
	            -0.0000289433       -0.0000187396        0.0000393075
	             0.0000277245        0.0000239593       -0.0000127457
	            -0.0000257844        0.0000045776       -0.0000037042
	             0.0000118509       -0.0000033871        0.0000567889
	            -0.0000061412       -0.0000143731       -0.0000010544

	---Fragment 1 Intrafragment Coordinates---
	 - Coordinate -           - BOHR/RAD -       - ANG/DEG -
	 R(1,2)           =         2.050283	       1.084963
	 R(1,3)           =         2.045773	       1.082576
	 R(1,4)           =         2.574237	       1.362227
	 R(1,6)           =         4.435711	       2.347277
	 R(4,5)           =         2.051686	       1.085706
	 R(4,9)           =         2.626720	       1.390000
	 R(6,7)           =         2.046136	       1.082769
	 R(6,8)           =         2.062417	       1.091384
	 R(6,12)          =         2.684799	       1.420735
	 R(9,10)          =         1.914102	       1.012899
	 R(9,11)          =         1.909752	       1.010597
	 R(12,13)         =         1.877786	       0.993681
	 B(1,4,5)         =         2.100764	     120.364922
	 B(1,4,9)         =         2.186148	     125.257033
	 B(1,6,7)         =         1.683719	      96.469965
	 B(1,6,8)         =         1.840352	     105.444418
	 B(1,6,12)        =         1.854992	     106.283216
	 B(2,1,3)         =         2.036333	     116.673306
	 B(2,1,4)         =         2.116271	     121.253404
	 B(2,1,6)         =         1.394238	      79.883961
	 B(3,1,4)         =         2.083343	     119.366748
	 B(3,1,6)         =         1.663061	      95.286380
	 B(4,1,6)         =         1.928146	     110.474614
	 B(4,9,10)        =         2.090275	     119.763948
	 B(4,9,11)        =         2.100546	     120.352446
	 B(5,4,9)         =         1.990631	     114.054750
	 B(6,12,13)       =         1.892759	     108.447111
	 B(7,6,8)         =         2.039996	     116.883183
	 B(7,6,12)        =         1.932225	     110.708309
	 B(8,6,12)        =         2.058414	     117.938459
	 B(10,9,11)       =         2.047509	     117.313632
	 D(1,4,9,10)      =         0.176470	      10.110983
	 D(1,4,9,11)      =         2.992377	     171.450557
	 D(1,6,12,13)     =        -1.334110	     -76.438847
	 D(2,1,4,5)       =         2.990102	     171.320222
	 D(2,1,4,9)       =        -0.272427	     -15.608932
	 D(2,1,6,7)       =         1.691538	      96.918010
	 D(2,1,6,8)       =        -2.493262	    -142.853390
	 D(2,1,6,12)      =        -0.295006	     -16.902607
	 D(3,1,4,5)       =         0.184645	      10.579400
	 D(3,1,4,9)       =        -3.077884	    -176.349754
	 D(3,1,6,7)       =        -2.563658	    -146.886773
	 D(3,1,6,8)       =        -0.465273	     -26.658173
	 D(3,1,6,12)      =         1.732983	      99.292610
	 D(4,1,6,7)       =        -0.398173	     -22.813630
	 D(4,1,6,8)       =         1.700212	      97.414970
	 D(4,1,6,12)      =        -2.384717	    -136.634247
	 D(5,4,1,6)       =        -1.714997	     -98.262090
	 D(5,4,9,10)      =        -3.079363	    -176.434518
	 D(5,4,9,11)      =        -0.263456	     -15.094943
	 D(6,1,4,9)       =         1.305659	      74.808756
	 D(7,6,12,13)     =         3.140110	     179.915050
	 D(8,6,12,13)     =         0.724781	      41.526884

	Current energy   :      -247.6180609858

	Energy change for the previous step:
		Projected    :        -0.0000002334
		Actual       :        -0.0000003859

	Performing Bofill update.
	Previous computed or guess Hessian on step 1.
	Steps to be used in Hessian update: 29 28
	Taking PRFO optimization step.
	Maximizing along 1 lowest eigenvalue of Hessian.

 RFO min eigenvalues
 -0.000000 -0.000000 -0.000000 -0.000000 -0.000000 -0.000000 -0.000000 -0.000000
 -0.000000 -0.000000 -0.000000  0.000000  0.000000  0.000000  0.000000  0.000000
  0.000000  0.000000  0.000000  0.000000  0.000000  0.001652  0.003059  0.007256
  0.015353  0.020184  0.022769  0.049359  0.051357  0.054494  0.067410  0.088005
  0.091668  0.114723  0.131727  0.144874  0.152624  0.157302  0.158428  0.179645
  0.213314  0.219525  0.346313  0.350684  0.351515  0.354512  0.355486  0.443337
  0.450652  0.453499  0.460278  0.516193  0.521802

 RFO max eigenvalues
 -0.017179  0.000000
	|RFO target step|  :        0.0073682490
	RFO gradient       :       -0.0000557066
	RFO hessian        :        0.0075599402
	Projected Delta(E) :       -0.0000002052

	Back-transformation to cartesian coordinates...
	Could not converge backtransformation.
	Using first guess instead.

	--- Internal Coordinate Step in ANG or DEG, aJ/ANG or AJ/DEG ---
	 ---------------------------------------------------------------------------
	   Coordinate                Previous        Force       Change         New
	   ----------                --------       ------       ------       ------
	    1 R(1,2)          =      1.084963    -0.000012     0.000003     1.084966
	    2 R(1,3)          =      1.082576     0.000008    -0.000002     1.082574
	    3 R(1,4)          =      1.362227    -0.000224     0.000029     1.362256
	    4 R(1,6)          =      2.347277     0.000197    -0.000345     2.346932
	    5 R(4,5)          =      1.085706     0.000009    -0.000004     1.085702
	    6 R(4,9)          =      1.390000     0.000267    -0.000082     1.389918
	    7 R(6,7)          =      1.082769     0.000038     0.000011     1.082780
	    8 R(6,8)          =      1.091384     0.000043     0.000008     1.091392
	    9 R(6,12)         =      1.420735     0.000329     0.000086     1.420821
	   10 R(9,10)         =      1.012899     0.000079    -0.000046     1.012853
	   11 R(9,11)         =      1.010597     0.000226    -0.000058     1.010539
	   12 R(12,13)        =      0.993681     0.000074     0.000018     0.993700
	   13 B(1,4,5)        =    120.364922     0.000000     0.003981   120.368903
	   14 B(1,4,9)        =    125.257033     0.000000    -0.000100   125.256933
	   15 B(1,6,7)        =     96.469965     0.000003     0.036296    96.506261
	   16 B(1,6,8)        =    105.444418     0.000002    -0.007425   105.436992
	   17 B(1,6,12)       =    106.283216    -0.000007     0.004784   106.287999
	   18 B(2,1,3)        =    116.673306    -0.000000    -0.002439   116.670867
	   19 B(2,1,4)        =    121.253404     0.000000    -0.007587   121.245817

  **** Optimization is complete! (in 30 steps) ****
    Final optimized geometry and variables:
    Molecular point group: c1

    Geometry (in Angstrom), charge = 0, multiplicity = 2:

    C            0.356299825253     1.013243057490    -0.166403618312
    H           -0.086635603400     0.686580639148    -1.101413887066
    H           -0.002613359048     1.950166909144     0.240199946630
    C            1.545351482127     0.508939188583     0.266605917293
    H            2.044663795160     0.942899322873     1.127490601300
    C           -1.428026199267    -0.274656937984     0.650421646081
    H           -0.857947879160    -1.179509965545     0.819655070490
    H           -1.787676463914     0.254633334095     1.534516198356
    N            2.154609092859    -0.641092588855    -0.221587032878
    H            1.792210520259    -1.086660484431    -1.055913933760
    H            3.095480323942    -0.879398998425     0.059977252876
    O           -2.327625728243    -0.443483300014    -0.436180972570
    H           -2.832638360371     0.403185904264    -0.560745555406

*** Psi4 exiting successfully. Buy a developer a beer!
