                               Psi4 1.2.1 release

  ==> Input File <==

--------------------------------------------------------------------------
molecule{
0 1
 C   -0.097234089459   -0.567034890671   -0.837782074140
 O   -1.114597217163   -0.644593626375   -1.456772892565
 F    1.044429986275   -0.029006751083    1.197659493656
 F   -1.112151503360    0.067506236223    1.242014407803
 H    1.293875393903    3.035391020007   -1.959216596611
 C    1.296307705263    1.987104820964   -1.653905304988
 H    1.343710569114    1.351938630559   -2.545227551154
 H    2.174242967609    1.803465156282   -1.035958749509
 O    0.166773779158    1.680421731763   -0.853287646439
 H   -0.641446597620    1.839049389277   -1.350712433180
 C   -0.077983984077   -0.555576292715    0.700581489695
 F   -0.111897566139   -1.847284868072    1.069969073092
 H    0.909621627476   -0.665343357872   -1.280065559244
}

set{
   basis 6-311++G(d,p)
   freeze_core True
}

set_num_threads(16)
optimize('m06-2x')
--------------------------------------------------------------------------

    Molecular point group: c1
  Charge       = 0
  Multiplicity = 1
  Basis Set: 6-311++G(D,P)
    Blend: 6-311++G(D,P)
  Basis Set: (6-311++G(D,P) AUX)
    Blend: AUG-CC-PVTZ-JKFIT
  @DF-RKS Final Energy:  -567.24528276325361
    Total Energy =                       -567.2452827632536128
    Molecular point group: c1
  Basis Set: 6-311++G(D,P)
    Blend: 6-311++G(D,P)
  Basis Set: (6-311++G(D,P) AUX)
    Blend: AUG-CC-PVTZ-JKFIT
  Basis Set: 6-311++G(D,P)
    Blend: 6-311++G(D,P)
  Basis Set: (6-311++G(D,P) AUX)
    Blend: AUG-CC-PVTZ-JKFIT
  @DF-RKS Final Energy:  -567.24747927498004
    Total Energy =                       -567.2474792749800372
  Basis Set: 6-311++G(D,P)
    Blend: 6-311++G(D,P)
  Basis Set: (6-311++G(D,P) AUX)
    Blend: AUG-CC-PVTZ-JKFIT
  Basis Set: 6-311++G(D,P)
    Blend: 6-311++G(D,P)
  @DF-RKS Final Energy:  -567.24871660761346
    Total Energy =                       -567.2487166076134599
  @DF-RKS Final Energy:  -567.24896644711646
    Total Energy =                       -567.2489664471165725
  @DF-RKS Final Energy:  -567.24911262367436
    Total Energy =                       -567.2491126236743639
  @DF-RKS Final Energy:  -567.24921399116988
    Total Energy =                       -567.2492139911698814
  @DF-RKS Final Energy:  -567.24929032290743
    Total Energy =                       -567.2492903229074273
  @DF-RKS Final Energy:  -567.24940832388404
    Total Energy =                       -567.2494083238840403
  @DF-RKS Final Energy:  -567.24954772463047
    Total Energy =                       -567.2495477246303608
  @DF-RKS Final Energy:  -567.24959832346144
    Total Energy =                       -567.2495983234614414
  @DF-RKS Final Energy:  -567.24969428854854
    Total Energy =                       -567.2496942885485396
  @DF-RKS Final Energy:  -567.24979035851811
    Total Energy =                       -567.2497903585181120
  @DF-RKS Final Energy:  -567.24986812286681
    Total Energy =                       -567.2498681228668147
  @DF-RKS Final Energy:  -567.24993692555518
    Total Energy =                       -567.2499369255550619
  @DF-RKS Final Energy:  -567.25001831769680
    Total Energy =                       -567.2500183176967994
  @DF-RKS Final Energy:  -567.25018736032735
    Total Energy =                       -567.2501873603273452
  @DF-RKS Final Energy:  -567.25025347480096
    Total Energy =                       -567.2502534748009566
  @DF-RKS Final Energy:  -567.25030378074348
    Total Energy =                       -567.2503037807434794
  @DF-RKS Final Energy:  -567.25045194658583
    Total Energy =                       -567.2504519465858266
  @DF-RKS Final Energy:  -567.25057379708221
    Total Energy =                       -567.2505737970822111
  @DF-RKS Final Energy:  -567.25090534602930
    Total Energy =                       -567.2509053460292989
  @DF-RKS Final Energy:  -567.25104651653294
    Total Energy =                       -567.2510465165329379
  @DF-RKS Final Energy:  -567.25114253558820
    Total Energy =                       -567.2511425355882011
  @DF-RKS Final Energy:  -567.25122450113531
    Total Energy =                       -567.2512245011353116
  @DF-RKS Final Energy:  -567.25128977116253
    Total Energy =                       -567.2512897711625328
  @DF-RKS Final Energy:  -567.25134940669545
    Total Energy =                       -567.2513494066954536
  @DF-RKS Final Energy:  -567.25140661189664
    Total Energy =                       -567.2514066118966412
  @DF-RKS Final Energy:  -567.25153523392419
    Total Energy =                       -567.2515352339241872
  @DF-RKS Final Energy:  -567.25019504303145
    Total Energy =                       -567.2501950430313400
  @DF-RKS Final Energy:  -567.24953946073481
    Total Energy =                       -567.2495394607348089
  @DF-RKS Final Energy:  -567.25121472264345
    Total Energy =                       -567.2512147226433399
  @DF-RKS Final Energy:  -567.25156495032661
    Total Energy =                       -567.2515649503266104
  @DF-RKS Final Energy:  -567.25136920852015
    Total Energy =                       -567.2513692085201455
  @DF-RKS Final Energy:  -567.25172324365428
    Total Energy =                       -567.2517232436542827
  @DF-RKS Final Energy:  -567.25179843546834
    Total Energy =                       -567.2517984354683449
  @DF-RKS Final Energy:  -567.25182892523685
    Total Energy =                       -567.2518289252368504
  @DF-RKS Final Energy:  -567.25183725214811
    Total Energy =                       -567.2518372521481069
  @DF-RKS Final Energy:  -567.25183962278891
    Total Energy =                       -567.2518396227889070
  Basis Set: (6-311++G(D,P) AUX)
    Blend: AUG-CC-PVTZ-JKFIT
  Basis Set: 6-311++G(D,P)
    Blend: 6-311++G(D,P)
  Basis Set: (6-311++G(D,P) AUX)
    Blend: AUG-CC-PVTZ-JKFIT
  @DF-RKS Final Energy:  -567.25184283271608
    Total Energy =                       -567.2518428327160791
  Basis Set: 6-311++G(D,P)
    Blend: 6-311++G(D,P)
  Basis Set: (6-311++G(D,P) AUX)
    Blend: AUG-CC-PVTZ-JKFIT
  Charge       = 0
  Multiplicity = 1
  Basis Set: 6-311++G(D,P)
    Blend: 6-311++G(D,P)
  Basis Set: (6-311++G(D,P) AUX)
    Blend: AUG-CC-PVTZ-JKFIT

    Orbital Energies [Eh]
    ---------------------

    Doubly Occupied:

       1A    -25.292126     2A    -25.291518     3A    -25.290066
       4A    -19.663516     5A    -19.647202     6A    -10.810610
       7A    -10.670199     8A    -10.592458     9A     -1.486160
      10A     -1.393390    11A     -1.390007    12A     -1.220272
      13A     -1.167341    14A     -0.867429    15A     -0.794978
      16A     -0.764227    17A     -0.712393    18A     -0.709215
      19A     -0.657024    20A     -0.608910    21A     -0.590919
      22A     -0.589306    23A     -0.570715    24A     -0.558916
      25A     -0.542923    26A     -0.530300    27A     -0.527447
      28A     -0.524177    29A     -0.520682    30A     -0.488890
      31A     -0.429677    32A     -0.377670    33A     -0.368682

  @DF-RKS Final Energy:  -567.25184366067299

   => Energetics <=

    Nuclear Repulsion Energy =            430.1183569504559046
    One-Electron Energy =               -1636.9906467226178393
    Two-Electron Energy =                 671.6314978070635107
    DFT Exchange-Correlation Energy =     -32.0110516955747002
    Empirical Dispersion Energy =           0.0000000000000000
    VV10 Nonlocal Energy =                  0.0000000000000000
    Total Energy =                       -567.2518436606729892

  Dipole Moment: [D]
     X:     1.7134      Y:     1.3722      Z:    -1.3215     Total:     2.5622

    Molecular point group: c1
  Basis Set: 6-311++G(D,P)
    Blend: 6-311++G(D,P)
  Basis Set: (6-311++G(D,P) AUX)
    Blend: AUG-CC-PVTZ-JKFIT

  -Total Gradient:
     Atom            X                  Y                   Z
    ------   -----------------  -----------------  -----------------
       1        0.000017331724     0.000001047321     0.000026634949
       2       -0.000055472094     0.000018727469    -0.000022788206
       3       -0.000028833248     0.000000529490    -0.000008406974
       4       -0.000037248564     0.000023744226    -0.000026429948
       5       -0.000011849059    -0.000023866673    -0.000019244788
       6       -0.000016508886     0.000010536097    -0.000038111513
       7        0.000007634287    -0.000042572972    -0.000009867977
       8       -0.000025831202    -0.000012034786    -0.000006338987
       9       -0.000032102738    -0.000034205160     0.000019937236
      10        0.000024133198     0.000001801054    -0.000034132213
      11       -0.000038427461     0.000007207912    -0.000021364997
      12       -0.000051473835     0.000008168152     0.000011187647
      13       -0.000024040533    -0.000010561490     0.000003671092

  **** Optimization is complete! (in 41 steps) ****
    Final optimized geometry and variables:
    Molecular point group: c1

    Geometry (in Angstrom), charge = 0, multiplicity = 1:

    C           -0.616630655103    -1.004629073155    -0.615723260208
    O           -1.760389228088    -0.857134562865    -0.913332225927
    F            1.267999219827    -0.297176852981     0.648119836864
    F           -0.588698758978     0.764261895695     0.984940292625
    H            1.126943192922     2.502148559693    -0.415672497809
    C            1.449493605135     1.955470997290    -1.306110122574
    H            1.664078994950     2.659242703861    -2.114248588983
    H            2.357338891397     1.404926758893    -1.068154892699
    O            0.479297250144     0.995004651378    -1.703351069143
    H           -0.329632763635     1.447183855155    -1.958725489605
    C           -0.061450461185    -0.419650346686     0.696532763312
    F           -0.349398193368    -1.258785048479     1.701723862868
    H            0.109101893675    -1.602154160875    -1.188751985837

*** Psi4 exiting successfully. Buy a developer a beer!
