                               Psi4 1.2.1 release

  ==> Input File <==

--------------------------------------------------------------------------

molecule{
0 1
 C   -1.987253340046   -0.201209974145    0.368946348714
 O   -2.186087699266   -0.071174664500    1.546261708528
 O   -2.715475607547   -0.146675923162   -0.716366274363
 N   -0.621545950914   -0.449969095933   -0.297744000449
 H   -1.783350745126   -0.254126059322   -1.264234810006
 H   -0.339273074484   -1.429725670373   -0.201309428630
 C    0.475532325723    0.431076724905    0.122243114905
 H    0.391505197212    0.590843718648    1.210103337150
 C    1.790342678425   -0.309093521331   -0.092617705679
 O    1.875302965325   -1.488390367594   -0.367284004290
 O    2.862034857915    0.485708227448    0.098356456730
 H    3.657226705040   -0.060096963105   -0.010351815203
 C    0.406962683440    1.791183761108   -0.585612245928
 H   -0.560679966034    2.263681488105   -0.386560898211
 H    1.194002736957    2.454332387203   -0.217827391851
 H    0.519788521702    1.673880836581   -1.668767958112
}

set basis 6-31+G*
set_num_threads(16)
e, wfn = properties('mp2', return_wfn=True)

d = wfn.Da().to_array()
s = wfn.S().to_array()
c = wfn.Ca().to_array()
occs = c.T.dot(s.dot(d).dot(s).dot(c))

molden(wfn, 'mp2.molden', density_a = psi4.core.Matrix.from_array(occs))
--------------------------------------------------------------------------

    Molecular point group: c1
  Charge       = 0
  Multiplicity = 1
  Basis Set: 6-31+G*
    Blend: 6-31+G*
  Basis Set: (6-31+G* AUX)
    Blend: HEAVY-AUG-CC-PVDZ-JKFIT

    Orbital Energies [Eh]
    ---------------------

    Doubly Occupied:

       1A    -20.657478     2A    -20.626432     3A    -20.598708
       4A    -20.587929     5A    -15.617420     6A    -11.441200
       7A    -11.428823     8A    -11.320515     9A    -11.256117
      10A     -1.500101    11A     -1.489073    12A     -1.397344
      13A     -1.396960    14A     -1.241267    15A     -1.059511
      16A     -0.940263    17A     -0.848650    18A     -0.804609
      19A     -0.772258    20A     -0.739696    21A     -0.721331
      22A     -0.705659    23A     -0.682838    24A     -0.658115
      25A     -0.635267    26A     -0.622095    27A     -0.599423
      28A     -0.581429    29A     -0.557631    30A     -0.550172
      31A     -0.512363    32A     -0.494902    33A     -0.487258
      34A     -0.481688    35A     -0.434561

  @DF-RHF Final Energy:  -509.43813385762223

   => Energetics <=

    Nuclear Repulsion Energy =            465.8431089095179232
    One-Electron Energy =               -1621.6643132883589260
    Two-Electron Energy =                 646.3830705212187695
    Total Energy =                       -509.4381338576222333
  Basis Set: (6-31+G* AUX)
    Blend: HEAVY-AUG-CC-PVDZ-RI
    Molecular point group: c1

    Geometry (in Angstrom), charge = 0, multiplicity = 1:

       Center              X                  Y                   Z               Mass
    ------------   -----------------  -----------------  -----------------  -----------------
         C           -1.987253340046    -0.201209974145     0.368946348714    12.000000000000
         O           -2.186087699266    -0.071174664500     1.546261708528    15.994914619560
         O           -2.715475607547    -0.146675923162    -0.716366274363    15.994914619560
         N           -0.621545950914    -0.449969095933    -0.297744000449    14.003074004780
         H           -1.783350745126    -0.254126059322    -1.264234810006     1.007825032070
         H           -0.339273074484    -1.429725670373    -0.201309428630     1.007825032070
         C            0.475532325723     0.431076724905     0.122243114905    12.000000000000
         H            0.391505197212     0.590843718648     1.210103337150     1.007825032070
         C            1.790342678425    -0.309093521331    -0.092617705679    12.000000000000
         O            1.875302965325    -1.488390367594    -0.367284004290    15.994914619560
         O            2.862034857915     0.485708227448     0.098356456730    15.994914619560
         H            3.657226705040    -0.060096963105    -0.010351815203     1.007825032070
         C            0.406962683440     1.791183761108    -0.585612245928    12.000000000000
         H           -0.560679966034     2.263681488105    -0.386560898211     1.007825032070
         H            1.194002736957     2.454332387203    -0.217827391851     1.007825032070
         H            0.519788521702     1.673880836581    -1.668767958112     1.007825032070

  Basis Set: 6-31+G*
    Blend: 6-31+G*
  Basis Set: (6-31+G* AUX)
    Blend: HEAVY-AUG-CC-PVDZ-JKFIT
	 Reference Energy          =    -509.4381338576222333 [Eh]
	 Singles Energy            =      -0.0000000000000000 [Eh]
	 Same-Spin Energy          =      -0.3950823326910616 [Eh]
	 Opposite-Spin Energy      =      -1.0613310370057609 [Eh]
	 Correlation Energy        =      -1.4564133696968224 [Eh]
	 Total Energy              =    -510.8945472273190376 [Eh]

	 ================> DF-SCS-MP2 Energies <==================
	-----------------------------------------------------------
	 SCS Same-Spin Scale       =       0.3333333333333333 [-]
	 SCS Opposite-Spin Scale   =       1.2000000000000000 [-]
	 SCS Same-Spin Energy      =      -0.1316941108970205 [Eh]
	 SCS Opposite-Spin Energy  =      -1.2735972444069130 [Eh]
	 SCS Correlation Energy    =      -1.4052913553039335 [Eh]
	 SCS Total Energy          =    -510.8434252129261495 [Eh]
	-----------------------------------------------------------

  Dipole Moment: [D]
     X:     3.8959      Y:     0.9225      Z:    -1.3323     Total:     4.2195

*** Psi4 exiting successfully. Buy a developer a beer!
